/*--------------------------------*- C++ -*----------------------------------*\
| =========                 |                                                 |
| \\      /  F ield         | OpenFOAM: The Open Source CFD Toolbox           |
|  \\    /   O peration     | Version:  2506                                  |
|   \\  /    A nd           | Website:  www.openfoam.com                      |
|    \\/     M anipulation  |                                                 |
\*---------------------------------------------------------------------------*/
FoamFile
{
    version     2.0;
    format      ascii;
    arch        "LSB;label=32;scalar=64";
    class       volScalarField;
    location    "6000";
    object      k;
}
// * * * * * * * * * * * * * * * * * * * * * * * * * * * * * * * * * * * * * //

dimensions      [0 2 -2 0 0 0 0];

internalField   nonuniform List<scalar> 
72100
(
0.0358192
0.0325858
0.0311662
0.0305181
0.0303067
0.0303379
0.0302526
0.0301057
0.0299605
0.0298927
0.0299562
0.0300485
0.030182
0.0303425
0.0303268
0.0301968
0.0300996
0.0301673
0.0352399
0.0339773
0.0312691
0.0366838
0.0325807
0.0334538
0.0348417
0.030993
0.0363524
0.0304778
0.0360224
0.0303073
0.0355711
0.0298652
0.0355066
0.0293992
0.0342082
0.0303396
0.0315135
0.0317929
0.0287418
0.0338589
0.29367
0.259023
0.248157
0.243162
0.241554
0.241748
0.240994
0.239817
0.238682
0.238059
0.238381
0.238917
0.239758
0.240909
0.240719
0.239592
0.238721
0.239027
0.241814
0.244249
0.244262
0.24517
0.244456
0.242063
0.243584
0.240799
0.241014
0.236962
0.238851
0.236564
0.236781
0.233656
0.232973
0.229072
0.230151
0.225762
0.223417
0.218711
0.21419
0.208971
0.627208
0.664292
0.639087
0.627471
0.623572
0.623811
0.62181
0.619088
0.616712
0.615218
0.615628
0.61644
0.617954
0.620424
0.619831
0.616939
0.614739
0.615369
0.61837
0.621358
0.623775
0.623773
0.623288
0.620958
0.615697
0.613479
0.609659
0.605557
0.605437
0.603606
0.599938
0.595846
0.588786
0.581913
0.577353
0.571025
0.561649
0.553623
0.541238
0.522783
1.17202
1.16113
1.12349
1.10644
1.10066
1.10094
1.09774
1.09395
1.0914
1.08951
1.08979
1.09041
1.09199
1.09525
1.09412
1.08939
1.08592
1.08737
1.09141
1.09356
1.09684
1.09632
1.09472
1.08831
1.08157
1.07758
1.07234
1.06524
1.06327
1.05998
1.05274
1.04672
1.0347
1.02221
1.01337
1.00011
0.984309
0.969566
0.949658
0.918532
1.70497
1.64333
1.60021
1.58169
1.57586
1.57689
1.57329
1.56988
1.56892
1.56787
1.56821
1.56865
1.57017
1.57338
1.57172
1.56556
1.56159
1.56452
1.56896
1.57053
1.57318
1.57115
1.56796
1.5599
1.54927
1.54583
1.53812
1.53059
1.52586
1.52139
1.51112
1.50424
1.48818
1.47217
1.45768
1.44065
1.4185
1.3994
1.37236
1.32935
2.03468
2.03572
1.99405
1.97758
1.97374
1.97678
1.97437
1.97281
1.97463
1.9757
1.97684
1.97791
1.98
1.98288
1.98077
1.9741
1.97075
1.97514
1.97971
1.98051
1.98385
1.98132
1.97555
1.9639
1.95575
1.95094
1.94515
1.93577
1.9308
1.924
1.91373
1.90615
1.89065
1.87176
1.85727
1.83398
1.81056
1.78745
1.75666
1.70866
2.35076
2.31396
2.27762
2.26466
2.26393
2.26991
2.27022
2.27152
2.27629
2.28042
2.28341
2.28615
2.28972
2.29247
2.29002
2.28396
2.28241
2.2879
2.29271
2.29323
2.29735
2.29663
2.28879
2.27684
2.26626
2.26531
2.25722
2.25214
2.24536
2.24033
2.22921
2.22515
2.20894
2.19402
2.17681
2.15604
2.13233
2.10919
2.07684
2.02414
2.53627
2.48511
2.45493
2.44511
2.44751
2.45658
2.46058
2.46522
2.47228
2.4796
2.48546
2.49089
2.49641
2.49925
2.49677
2.49251
2.49366
2.49976
2.50519
2.50623
2.51184
2.51272
2.50621
2.49354
2.48544
2.48491
2.48208
2.47631
2.4744
2.46694
2.46088
2.45704
2.44727
2.43218
2.41974
2.39863
2.37901
2.35788
2.32552
2.27562
2.60842
2.57599
2.55102
2.54331
2.54792
2.55947
2.56703
2.57525
2.58407
2.59423
2.60329
2.61173
2.61969
2.62288
2.62077
2.61863
2.62309
2.62981
2.63611
2.63851
2.64601
2.64898
2.64396
2.63427
2.62572
2.62868
2.62589
2.62499
2.62333
2.61951
2.61444
2.61619
2.60812
2.6003
2.59003
2.57419
2.55979
2.54045
2.51164
2.46293
2.63879
2.60856
2.58736
2.58072
2.58658
2.5998
2.61039
2.6216
2.63185
2.64403
2.65619
2.6678
2.67807
2.68197
2.68068
2.68096
2.6885
2.69608
2.70351
2.70783
2.71731
2.72263
2.71978
2.71206
2.70738
2.71167
2.71351
2.71339
2.71666
2.71278
2.71259
2.71624
2.71422
2.70989
2.70572
2.69316
2.68538
2.6696
2.64453
2.60147
2.63464
2.60425
2.58545
2.57916
2.58553
2.59958
2.61215
2.62577
2.63742
2.65089
2.66557
2.67972
2.69235
2.69757
2.69752
2.69985
2.71024
2.71918
2.72751
2.73403
2.74571
2.75312
2.75282
2.74748
2.7456
2.75309
2.75596
2.75989
2.76552
2.76441
2.76669
2.77413
2.77531
2.77734
2.77722
2.77109
2.76921
2.75723
2.73745
2.6985
2.6097
2.5764
2.55887
2.55256
2.55898
2.57327
2.58692
2.60212
2.61498
2.6292
2.64574
2.6617
2.67641
2.68354
2.68508
2.6894
2.70213
2.71268
2.72163
2.73036
2.7442
2.75364
2.75587
2.75297
2.75441
2.76429
2.77028
2.77613
2.7853
2.78608
2.79163
2.80129
2.8067
2.81324
2.81862
2.81727
2.82192
2.81333
2.79947
2.7668
2.55931
2.53487
2.51785
2.51142
2.51759
2.53178
2.54566
2.56175
2.57555
2.59029
2.60822
2.62506
2.64137
2.65093
2.65446
2.66057
2.67514
2.68753
2.69669
2.70729
2.72332
2.73468
2.73923
2.7388
2.7435
2.7558
2.76365
2.77193
2.78421
2.78744
2.79602
2.80759
2.81649
2.82718
2.83712
2.84157
2.85123
2.84737
2.83875
2.81222
2.51397
2.4856
2.46883
2.46236
2.46813
2.48209
2.49561
2.51209
2.52643
2.54151
2.56055
2.57757
2.59501
2.60717
2.61294
2.62066
2.63676
2.65096
2.66005
2.67213
2.68997
2.70316
2.70988
2.71171
2.7197
2.73427
2.74389
2.754
2.76877
2.77506
2.78619
2.7999
2.81163
2.82588
2.84001
2.84983
2.86452
2.86429
2.86138
2.841
2.46527
2.43223
2.41579
2.40955
2.41478
2.42851
2.44135
2.45791
2.47243
2.48759
2.50768
2.52449
2.54266
2.55711
2.56529
2.57452
2.59184
2.60772
2.61646
2.62959
2.64875
2.66379
2.67223
2.67653
2.68754
2.70407
2.71546
2.72683
2.7437
2.75308
2.76702
2.78256
2.79721
2.81397
2.83197
2.84659
2.86597
2.86962
2.87147
2.85731
2.39825
2.377
2.36128
2.35554
2.36019
2.37379
2.38587
2.40227
2.41679
2.43177
2.45276
2.46946
2.48782
2.50405
2.51454
2.52531
2.54355
2.56103
2.56939
2.58295
2.60315
2.61976
2.62952
2.63649
2.65012
2.66828
2.68137
2.69388
2.71232
2.7247
2.7411
2.75876
2.77622
2.79516
2.81629
2.83524
2.85868
2.86641
2.8727
2.86408
2.3459
2.32149
2.30687
2.30184
2.30605
2.31956
2.33099
2.34709
2.36167
2.37612
2.39774
2.41466
2.43293
2.45015
2.46248
2.47502
2.49395
2.51278
2.521
2.53459
2.55549
2.57322
2.58398
2.59353
2.60959
2.62886
2.64369
2.65729
2.67695
2.69196
2.71055
2.73034
2.75067
2.77175
2.79534
2.81792
2.84493
2.85679
2.86747
2.86379
2.29109
2.2669
2.25359
2.2495
2.25334
2.26681
2.27772
2.29336
2.30829
2.32194
2.34395
2.36119
2.37928
2.39669
2.41045
2.42488
2.44429
2.46413
2.47251
2.48614
2.50733
2.52566
2.53724
2.54924
2.56735
2.58733
2.60404
2.61866
2.63939
2.65645
2.67693
2.69864
2.72194
2.74521
2.77064
2.79634
2.82622
2.84208
2.85737
2.85814
2.23346
2.21419
2.20227
2.19928
2.20274
2.21615
2.22668
2.24174
2.25722
2.2701
2.29214
2.3096
2.32745
2.34456
2.35942
2.37553
2.3953
2.41587
2.4248
2.43861
2.45967
2.47813
2.49054
2.50472
2.52444
2.54486
2.56365
2.57928
2.60082
2.61943
2.64139
2.66482
2.69094
2.71656
2.7436
2.77186
2.80404
2.82369
2.84339
2.84813
2.19348
2.16391
2.15335
2.1515
2.15459
2.16777
2.17824
2.1926
2.20858
2.22105
2.24252
2.26016
2.27765
2.29429
2.30988
2.32721
2.34731
2.36843
2.37828
2.39241
2.41297
2.4314
2.44471
2.46048
2.48161
2.5023
2.52324
2.53997
2.56188
2.58178
2.6048
2.62994
2.65831
2.68644
2.71497
2.74532
2.77928
2.80195
2.82624
2.83488
2.13152
2.11638
2.10722
2.10647
2.10903
2.12189
2.13253
2.14632
2.16238
2.17493
2.19526
2.21301
2.23027
2.24631
2.26236
2.28032
2.30058
2.3222
2.33319
2.34768
2.3675
2.38606
2.40018
2.41728
2.43932
2.4603
2.48316
2.50112
2.523
2.54406
2.56794
2.59475
2.6247
2.65533
2.68541
2.71776
2.75268
2.77802
2.80639
2.81871
2.08925
2.07167
2.06388
2.06407
2.06611
2.07857
2.0894
2.10284
2.11853
2.13147
2.15032
2.16819
2.18552
2.20086
2.21708
2.23533
2.25557
2.2775
2.28952
2.30429
2.32345
2.34234
2.35725
2.37528
2.3978
2.41915
2.44355
2.46293
2.48443
2.5067
2.53125
2.55964
2.5906
2.62354
2.6554
2.68957
2.72503
2.75222
2.78452
2.80042
2.04662
2.02995
2.02323
2.02406
2.0257
2.03787
2.04884
2.06197
2.07706
2.09031
2.10776
2.12585
2.1436
2.15821
2.1743
2.19273
2.2127
2.23467
2.24751
2.26231
2.28098
2.30037
2.31602
2.33459
2.3572
2.37899
2.40474
2.42562
2.44654
2.47005
2.49524
2.52485
2.5566
2.5913
2.62508
2.66084
2.69659
2.72542
2.76116
2.7809
2.00408
1.99127
1.98508
1.98623
1.98771
1.99971
2.01078
2.0235
2.03802
2.05134
2.06762
2.08605
2.10442
2.11838
2.13408
2.15258
2.17207
2.19384
2.2072
2.22197
2.24023
2.26009
2.27657
2.29527
2.31773
2.33996
2.36705
2.38933
2.40954
2.43423
2.46005
2.49054
2.52305
2.55894
2.59442
2.63148
2.66751
2.69777
2.73657
2.76059
1.98295
1.95537
1.94919
1.95048
1.95198
1.96393
1.97511
1.98736
2.00139
2.01463
2.02998
2.04855
2.06765
2.08118
2.09632
2.11465
2.13348
2.15488
2.16851
2.18334
2.2012
2.22126
2.23889
2.25758
2.27971
2.30221
2.33036
2.35408
2.37355
2.39919
2.42563
2.45684
2.49002
2.52676
2.56334
2.60144
2.63799
2.66953
2.71095
2.73912
1.94099
1.92216
1.91569
1.91707
1.91873
1.93074
1.94188
1.95374
1.96737
1.98048
1.99501
2.01353
2.0331
2.04657
2.06108
2.07901
2.0971
2.11803
2.1316
2.14663
2.16414
2.18442
2.20305
2.22181
2.2437
2.26618
2.29502
2.3199
2.33883
2.36516
2.39216
2.42409
2.45777
2.49496
2.53199
2.57095
2.6082
2.64127
2.68459
2.71691
1.92027
1.8913
1.8845
1.88603
1.88779
1.89978
1.91088
1.92248
1.93565
1.94868
1.96263
1.98054
2.00042
2.01406
2.02806
2.04534
2.06282
2.08342
2.09675
2.11189
2.1293
2.1496
2.16889
2.18771
2.20971
2.23202
2.26075
2.28662
2.30542
2.33237
2.35973
2.39246
2.42623
2.4635
2.50033
2.54017
2.5784
2.61265
2.65793
2.69387
1.88004
1.8629
1.85583
1.85763
1.8591
1.87091
1.88203
1.89348
1.90622
1.91921
1.93251
1.9495
1.96957
1.9836
1.997
2.01359
2.03087
2.05119
2.06425
2.07932
2.09701
2.11712
2.13659
2.15532
2.17769
2.19983
2.22787
2.25456
2.2736
2.30115
2.32846
2.36198
2.39538
2.43248
2.46868
2.50966
2.54871
2.58415
2.63097
2.67007
1.86076
1.83675
1.82934
1.83153
1.83241
1.84379
1.85503
1.86631
1.87871
1.89163
1.90437
1.92022
1.94025
1.95486
1.96774
1.98361
2.00089
2.02087
2.03398
2.04878
2.0671
2.08668
2.10602
2.12467
2.14732
2.16936
2.19653
2.2237
2.2432
2.27137
2.29828
2.33223
2.36516
2.40189
2.43739
2.47931
2.51914
2.55537
2.60398
2.64516
1.84203
1.81311
1.8052
1.80785
1.80806
1.81867
1.83017
1.8412
1.85332
1.8661
1.87838
1.89296
1.9127
1.92796
1.94052
1.95579
1.97299
1.99251
2.00592
2.02061
2.03963
2.05844
2.07755
2.09623
2.11888
2.14091
2.16717
2.19424
2.21414
2.24309
2.26941
2.3032
2.33552
2.37195
2.40704
2.4494
2.49005
2.52705
2.57726
2.6199
1.82382
1.79156
1.78314
1.78609
1.786
1.79554
1.80723
1.81809
1.82988
1.84246
1.8544
1.86786
1.88672
1.90261
1.91516
1.92994
1.94697
1.96594
1.97986
1.99453
2.01414
2.03209
2.05096
2.06991
2.09218
2.1142
2.13965
2.16617
2.18613
2.21585
2.24186
2.27508
2.30642
2.34257
2.37787
2.42032
2.46171
2.49923
2.55063
2.59428
1.80619
1.77178
1.76287
1.76579
1.76593
1.77437
1.7858
1.79682
1.80812
1.82048
1.83219
1.84476
1.86226
1.87861
1.89153
1.90579
1.92257
1.94109
1.95547
1.97031
1.99013
2.00741
2.02587
2.04529
2.06694
2.08882
2.11346
2.13924
2.15906
2.18925
2.21548
2.24797
2.27792
2.31366
2.34976
2.39206
2.43402
2.47161
2.52383
2.56828
1.77301
1.75365
1.74435
1.74689
1.74763
1.75517
1.76574
1.77711
1.78793
1.80006
1.81163
1.82342
1.83954
1.85596
1.86949
1.8832
1.89955
1.91787
1.93256
1.94776
1.96742
1.98432
2.00212
2.02194
2.0428
2.06438
2.0883
2.1131
2.13299
2.1631
2.18997
2.22185
2.2502
2.28531
2.32243
2.36453
2.40676
2.44401
2.4968
2.54201
1.75749
1.73705
1.72735
1.72939
1.73089
1.73778
1.74712
1.75865
1.76918
1.78088
1.79262
1.80365
1.81851
1.83469
1.84881
1.86204
1.87767
1.89593
1.91091
1.92656
1.94583
1.96274
1.97958
1.99948
2.01939
2.04057
2.06391
2.08759
2.10788
2.13738
2.16504
2.19651
2.22346
2.25773
2.2957
2.33767
2.37977
2.4164
2.46964
2.51574
1.74262
1.72175
1.71157
1.71316
1.71545
1.72182
1.72988
1.74123
1.75172
1.76263
1.77488
1.78532
1.79902
1.81469
1.82926
1.84218
1.85686
1.87496
1.8903
1.90645
1.92512
1.94229
1.95812
1.97778
1.99652
2.01734
2.0402
2.06283
2.08366
2.11223
2.14057
2.17181
2.1979
2.23117
2.26952
2.31147
2.35319
2.38887
2.44258
2.48983
1.72832
1.70745
1.69664
1.69805
1.70104
1.70687
1.71385
1.72466
1.73534
1.74518
1.75803
1.76821
1.78094
1.79582
1.81064
1.82351
1.83722
1.85491
1.87066
1.88723
1.90518
1.92254
1.93753
1.95681
1.97433
1.99475
2.01715
2.03898
2.06051
2.08799
2.11659
2.14769
2.17364
2.20587
2.24405
2.28591
2.32721
2.3616
2.41584
2.46467
1.72832
1.69391
1.6823
1.68391
1.68746
1.69271
1.69877
1.70874
1.71976
1.72851
1.74178
1.75201
1.76422
1.77801
1.79273
1.80588
1.81886
1.83578
1.85196
1.86879
1.88593
1.90326
1.91758
1.93658
1.95304
1.97285
1.99478
2.01607
2.03856
2.06504
2.09324
2.12407
2.15055
2.18192
2.21949
2.26094
2.30189
2.33483
2.3895
2.44051
1.71435
1.68091
1.66842
1.67049
1.67458
1.67927
1.68456
1.69336
1.70466
1.71265
1.72595
1.73635
1.74865
1.76114
1.77535
1.78899
1.80176
1.81752
1.834
1.85103
1.86732
1.88435
1.89807
1.91699
1.93282
1.95165
1.97318
1.99406
2.01762
2.04344
2.07073
2.10088
2.12821
2.15917
2.19594
2.23648
2.27712
2.30873
2.36349
2.41701
1.70041
1.6683
1.65499
1.65742
1.66215
1.66643
1.671
1.67869
1.68987
1.69757
1.71052
1.721
1.73378
1.74502
1.75839
1.77254
1.78577
1.80011
1.81657
1.83385
1.84932
1.86591
1.87885
1.89783
1.91367
1.93119
1.95227
1.97292
1.99737
2.02297
2.04915
2.07811
2.10629
2.1372
2.17341
2.21241
2.25265
2.28329
2.33762
2.39353
1.68627
1.65594
1.64205
1.64448
1.64989
1.65408
1.65794
1.66489
1.6754
1.68315
1.69552
1.70592
1.71909
1.72943
1.7418
1.75636
1.77057
1.78353
1.7996
1.81703
1.83192
1.84806
1.86
1.87893
1.89517
1.91143
1.93198
1.95256
1.97745
2.00326
2.02845
2.05594
2.08472
2.11558
2.15145
2.18873
2.2282
2.25839
2.31168
2.36964
1.672
1.64386
1.62961
1.63171
1.63774
1.64213
1.64533
1.65178
1.66149
1.66939
1.68112
1.69133
1.70442
1.7142
1.72569
1.74041
1.75556
1.76775
1.78315
1.80043
1.81518
1.83108
1.842
1.86051
1.87698
1.89229
1.91229
1.93282
1.95767
1.98398
2.0085
2.03481
2.06392
2.09422
2.1298
2.16549
2.20401
2.23401
2.28568
2.34545
1.65807
1.63246
1.61769
1.61938
1.62585
1.63053
1.63313
1.63925
1.64836
1.65645
1.66769
1.67766
1.69005
1.69924
1.71027
1.7248
1.7406
1.75272
1.76717
1.78417
1.79919
1.81517
1.82528
1.8431
1.85931
1.8739
1.89297
1.91349
1.9379
1.96454
1.9892
2.01497
2.0442
2.07362
2.10855
2.14298
2.18073
2.21036
2.26016
2.32122
1.64486
1.6218
1.6062
1.60769
1.61409
1.61915
1.6214
1.62727
1.63587
1.64416
1.65524
1.66488
1.67636
1.68483
1.69564
1.70959
1.72565
1.73791
1.75159
1.76818
1.78362
1.79968
1.8095
1.82666
1.8424
1.85623
1.87391
1.89442
1.91793
1.94478
1.97017
1.99573
2.02507
2.05354
2.08767
2.12103
2.15828
2.18776
2.23529
2.29677
1.64486
1.61185
1.59529
1.59657
1.60275
1.60792
1.61013
1.61589
1.62407
1.63247
1.64355
1.65301
1.66361
1.67123
1.68185
1.69508
1.71086
1.72333
1.73645
1.75242
1.76837
1.7841
1.79429
1.81106
1.82635
1.8393
1.85553
1.87575
1.89816
1.92484
1.95083
1.97671
2.00631
2.03387
2.06739
2.09946
2.13663
2.16628
2.21137
2.27218
1.63227
1.60251
1.58498
1.58602
1.59192
1.5969
1.59912
1.60508
1.61296
1.62135
1.63247
1.64176
1.65183
1.65863
1.66895
1.6815
1.69662
1.70903
1.72164
1.73693
1.75338
1.76865
1.77925
1.796
1.81124
1.82311
1.83795
1.8576
1.87894
1.90485
1.93147
1.95761
1.98739
2.01453
2.04754
2.07828
2.1152
2.14572
2.18866
2.24814
1.61959
1.59367
1.57553
1.57624
1.58169
1.58612
1.58834
1.59471
1.60257
1.61104
1.62192
1.63116
1.64105
1.64755
1.65748
1.66938
1.68372
1.69561
1.70743
1.72221
1.73892
1.75351
1.76422
1.78152
1.79692
1.80791
1.82138
1.84053
1.86063
1.88554
1.91252
1.93854
1.96846
1.99596
2.02825
2.05754
2.09425
2.12649
2.16808
2.22503
1.60654
1.5848
1.56654
1.56687
1.57172
1.57565
1.57778
1.58442
1.59222
1.60084
1.61149
1.62077
1.63066
1.63703
1.64674
1.65819
1.67179
1.68287
1.69408
1.70824
1.72494
1.73876
1.7495
1.76715
1.78299
1.79358
1.80576
1.82419
1.84343
1.86717
1.8939
1.91967
1.94945
1.97773
2.00936
2.03759
2.07321
2.10739
2.14805
2.20234
1.60654
1.57596
1.55774
1.55773
1.56202
1.56559
1.56749
1.57428
1.58184
1.59059
1.60107
1.61038
1.62044
1.62681
1.63631
1.64771
1.66055
1.67067
1.68157
1.69502
1.71149
1.72483
1.73503
1.75292
1.76914
1.77978
1.79106
1.80843
1.8272
1.8497
1.87578
1.90106
1.93012
1.95961
1.99099
2.01818
2.05203
2.08763
2.12821
2.18027
1.59375
1.56728
1.54915
1.54878
1.55258
1.55601
1.55783
1.56458
1.57153
1.58025
1.59065
1.60018
1.61037
1.61686
1.62611
1.63762
1.64985
1.65897
1.6699
1.68289
1.6988
1.71144
1.7211
1.73891
1.75505
1.76659
1.77719
1.79339
1.81162
1.83354
1.85863
1.88308
1.91115
1.94161
1.97291
1.99952
2.03148
2.0679
2.10851
2.15825
1.58176
1.55907
1.54119
1.54052
1.5439
1.54729
1.54895
1.5555
1.56186
1.57047
1.58101
1.59069
1.60099
1.60741
1.61627
1.62766
1.63947
1.64802
1.65957
1.67179
1.68721
1.69926
1.70841
1.72527
1.74122
1.7538
1.7641
1.7793
1.79718
1.81902
1.84316
1.86657
1.89319
1.92398
1.95578
1.98254
2.01264
2.0488
2.08871
2.13629
1.58176
1.55118
1.53369
1.53282
1.53592
1.53913
1.54061
1.54697
1.55277
1.56119
1.5717
1.58159
1.59192
1.59827
1.60673
1.61802
1.62938
1.63746
1.64936
1.6611
1.67597
1.68802
1.69634
1.71225
1.72706
1.74076
1.75132
1.76559
1.78287
1.80513
1.82873
1.85086
1.87612
1.90666
1.93896
1.96609
1.99485
2.0301
2.0693
2.11465
1.57056
1.54368
1.52677
1.5258
1.52872
1.53171
1.53305
1.53905
1.54453
1.55258
1.56299
1.57297
1.58316
1.58959
1.59756
1.60873
1.61949
1.62739
1.63969
1.65112
1.66508
1.67748
1.68537
1.69972
1.71316
1.72752
1.73861
1.75233
1.769
1.79188
1.81526
1.83613
1.86013
1.88978
1.92255
1.95029
1.97894
2.01243
2.05081
2.09381
1.56067
1.53724
1.52092
1.51981
1.52285
1.52568
1.527
1.53271
1.53798
1.54535
1.55495
1.56451
1.57478
1.58147
1.58913
1.60003
1.6105
1.61824
1.63066
1.6415
1.65448
1.66761
1.67493
1.68828
1.70006
1.71418
1.72639
1.74003
1.75609
1.77926
1.80252
1.82246
1.84529
1.87405
1.90698
1.93506
1.96367
1.99589
2.03399
2.0745
1.56067
1.53123
1.5153
1.51393
1.51715
1.52008
1.52148
1.52682
1.53192
1.53853
1.54728
1.55642
1.56642
1.57348
1.58087
1.59163
1.60147
1.60897
1.6213
1.63182
1.64377
1.65739
1.66461
1.67729
1.6878
1.70109
1.71407
1.72803
1.74359
1.76674
1.79006
1.80907
1.83097
1.85858
1.89129
1.91978
1.94857
1.97999
2.01765
2.05675
1.55232
1.5259
1.51006
1.50819
1.51163
1.51497
1.51648
1.52156
1.5267
1.53226
1.53999
1.54864
1.5583
1.56571
1.57291
1.58321
1.59262
1.59946
1.61154
1.62193
1.63275
1.64695
1.65465
1.66676
1.67707
1.68863
1.70215
1.71657
1.73177
1.75452
1.77765
1.79625
1.81714
1.84359
1.87572
1.9046
1.93348
1.96433
2.00195
2.0402
1.55232
1.52078
1.50473
1.50215
1.50563
1.50984
1.51137
1.51613
1.52131
1.52598
1.5332
1.54159
1.55062
1.55793
1.56497
1.57426
1.58331
1.58963
1.60115
1.61154
1.62174
1.63679
1.64514
1.65706
1.66757
1.67795
1.69108
1.70591
1.7205
1.74286
1.76556
1.78415
1.80392
1.8295
1.86049
1.88955
1.91867
1.94923
1.98626
2.02405
1.54409
1.5156
1.49933
1.49605
1.49919
1.5044
1.50614
1.51044
1.51582
1.51961
1.52645
1.53481
1.54318
1.54999
1.55692
1.5654
1.57382
1.57961
1.59076
1.601
1.61075
1.62594
1.6358
1.64753
1.65901
1.66802
1.68066
1.69558
1.70999
1.73141
1.75393
1.77235
1.79159
1.81577
1.84543
1.87439
1.90397
1.9343
1.97034
2.00799
1.53468
1.51015
1.49385
1.49002
1.49253
1.49839
1.50035
1.50415
1.50969
1.5132
1.51981
1.52839
1.53601
1.5419
1.54861
1.55622
1.56424
1.56988
1.58098
1.59129
1.60086
1.61613
1.6267
1.63861
1.65118
1.65977
1.67153
1.68648
1.70035
1.72114
1.74325
1.76184
1.78037
1.80362
1.83119
1.85948
1.89006
1.92006
1.95482
1.99177
1.53468
1.50458
1.48835
1.48442
1.48604
1.49195
1.49426
1.49766
1.50328
1.50687
1.51324
1.52184
1.5288
1.53387
1.54055
1.54768
1.55513
1.56069
1.57174
1.5822
1.5918
1.60665
1.61779
1.62969
1.64354
1.65199
1.66318
1.678
1.69154
1.71143
1.7331
1.75198
1.77016
1.79256
1.81772
1.84482
1.87649
1.90626
1.93946
1.97557
1.52475
1.49895
1.48282
1.479
1.47977
1.48532
1.48791
1.49107
1.49644
1.50058
1.50666
1.51522
1.52183
1.5259
1.53264
1.53946
1.54669
1.55203
1.56291
1.57364
1.58349
1.59791
1.60912
1.6209
1.63565
1.64454
1.65555
1.67013
1.68331
1.70249
1.72329
1.74282
1.76056
1.78254
1.80574
1.83036
1.86279
1.89261
1.92451
1.95966
1.52475
1.49318
1.47683
1.47351
1.47402
1.47905
1.48173
1.48485
1.48996
1.49453
1.50019
1.50819
1.51466
1.51842
1.52535
1.53236
1.53945
1.54494
1.55474
1.5655
1.57559
1.58957
1.60104
1.61275
1.62846
1.63775
1.64898
1.66342
1.67614
1.69454
1.71415
1.73407
1.75158
1.77394
1.79529
1.81813
1.84998
1.87909
1.9101
1.94476
1.51458
1.48725
1.47064
1.46775
1.46827
1.47289
1.47568
1.47857
1.48347
1.48841
1.49373
1.50119
1.50737
1.51097
1.51808
1.5252
1.53241
1.53813
1.54712
1.55734
1.56764
1.5813
1.59293
1.60462
1.62088
1.63095
1.64257
1.6569
1.66943
1.68689
1.70528
1.72532
1.74232
1.76555
1.7863
1.80666
1.83739
1.86588
1.89569
1.93017
1.50322
1.48094
1.46402
1.46157
1.46256
1.46688
1.46976
1.47251
1.47727
1.48217
1.48724
1.49371
1.50013
1.50405
1.5111
1.51851
1.52563
1.53209
1.54022
1.5497
1.55993
1.57296
1.58477
1.59635
1.61323
1.62412
1.6361
1.65052
1.66352
1.68055
1.6977
1.71752
1.7335
1.75762
1.77853
1.798
1.82678
1.8535
1.88234
1.91663
1.50322
1.47439
1.45741
1.45507
1.45638
1.46067
1.46363
1.46622
1.47081
1.47562
1.48067
1.48649
1.49282
1.49718
1.50416
1.51172
1.51888
1.52594
1.53403
1.54238
1.5524
1.56487
1.57658
1.58801
1.60505
1.61678
1.62895
1.64344
1.65691
1.67387
1.69031
1.70992
1.72502
1.74977
1.77112
1.79009
1.81683
1.84236
1.86935
1.903
1.49066
1.46759
1.45079
1.44849
1.44974
1.45395
1.45712
1.45979
1.46413
1.46865
1.47394
1.479
1.48561
1.49047
1.4973
1.50519
1.51233
1.51989
1.52818
1.53614
1.54546
1.55711
1.56856
1.57951
1.59642
1.60878
1.62078
1.6351
1.64942
1.6667
1.68307
1.70301
1.71743
1.74223
1.76396
1.78333
1.80837
1.83236
1.85817
1.88996
1.49066
1.46098
1.44462
1.44204
1.4431
1.44701
1.45044
1.45335
1.45738
1.4617
1.46737
1.47197
1.47877
1.48404
1.49077
1.49879
1.50617
1.51397
1.5222
1.5301
1.53901
1.55014
1.56127
1.57194
1.58823
1.60085
1.61269
1.62654
1.64111
1.65865
1.67497
1.69551
1.71039
1.73493
1.75685
1.77675
1.80025
1.8235
1.84771
1.87752
1.4783
1.45456
1.43869
1.4358
1.43647
1.43985
1.44352
1.4468
1.45069
1.45472
1.46092
1.46518
1.47203
1.4778
1.4843
1.49255
1.50005
1.50817
1.51612
1.52449
1.53289
1.54378
1.55438
1.56479
1.58036
1.593
1.60473
1.61778
1.63243
1.64981
1.66628
1.68725
1.70334
1.72778
1.74947
1.77032
1.79288
1.81516
1.83844
1.86606
1.4783
1.44813
1.43312
1.43018
1.43079
1.43324
1.43689
1.44043
1.44433
1.44807
1.45465
1.45887
1.46562
1.47162
1.47796
1.48617
1.49368
1.50201
1.50916
1.51817
1.52638
1.5377
1.54801
1.55858
1.57314
1.58557
1.59764
1.60977
1.62395
1.64086
1.65723
1.67802
1.69547
1.71981
1.74148
1.76314
1.78541
1.80694
1.82926
1.85541
1.46538
1.44166
1.42754
1.42469
1.42541
1.42681
1.43034
1.4339
1.43804
1.44143
1.44833
1.45265
1.45914
1.46542
1.4715
1.47977
1.48704
1.49561
1.50205
1.51145
1.5196
1.53154
1.54151
1.55245
1.56645
1.57814
1.59084
1.60192
1.61571
1.63172
1.64802
1.66815
1.6866
1.71141
1.73288
1.75565
1.77806
1.79882
1.82017
1.84542
1.46538
1.43462
1.42119
1.41851
1.41955
1.42032
1.42366
1.42709
1.43143
1.43473
1.44155
1.44597
1.45219
1.45822
1.4642
1.47249
1.4795
1.48828
1.49434
1.50444
1.51207
1.52457
1.53423
1.5459
1.55925
1.57052
1.58407
1.59457
1.6078
1.62316
1.63967
1.65904
1.67687
1.70143
1.72309
1.74665
1.76931
1.78941
1.81043
1.83485
1.45168
1.42741
1.41451
1.41213
1.41344
1.41366
1.41707
1.42017
1.42453
1.42786
1.43458
1.439
1.44519
1.45076
1.45665
1.46487
1.47182
1.48065
1.48669
1.49709
1.50435
1.51709
1.52658
1.53888
1.55231
1.5627
1.57708
1.58713
1.60019
1.61453
1.631
1.65002
1.66686
1.69105
1.71251
1.73721
1.76042
1.77988
1.80043
1.82465
1.43737
1.42017
1.40696
1.40412
1.40557
1.40572
1.40945
1.41266
1.41695
1.42069
1.42741
1.43212
1.43836
1.44323
1.44916
1.45691
1.46369
1.47227
1.4785
1.48963
1.49631
1.50916
1.51824
1.53089
1.54416
1.55446
1.57001
1.57997
1.59329
1.60708
1.62398
1.64334
1.65811
1.68141
1.70246
1.72743
1.75012
1.76968
1.79036
1.814
1.43737
1.41263
1.39921
1.39605
1.39738
1.39756
1.40159
1.405
1.40903
1.41325
1.41992
1.42478
1.43152
1.43557
1.44159
1.44886
1.45567
1.4638
1.47039
1.4817
1.48819
1.50063
1.5097
1.52241
1.53583
1.54597
1.56212
1.57256
1.58608
1.59946
1.61628
1.63662
1.65021
1.67162
1.69196
1.71739
1.73959
1.75912
1.77996
1.80372
1.41943
1.40421
1.39114
1.3878
1.38923
1.38939
1.39336
1.39695
1.40071
1.4051
1.4114
1.41671
1.42396
1.42814
1.43447
1.44137
1.44839
1.45596
1.4628
1.47361
1.47997
1.49232
1.501
1.51328
1.52665
1.53695
1.55375
1.56436
1.57832
1.59159
1.60853
1.62954
1.64197
1.66242
1.68208
1.70735
1.72858
1.74818
1.76886
1.79252
1.41943
1.3953
1.38276
1.37929
1.3809
1.38106
1.38505
1.3887
1.39222
1.39672
1.40264
1.40801
1.41576
1.42027
1.42688
1.4337
1.44093
1.44801
1.45532
1.46523
1.47173
1.48339
1.4922
1.50386
1.51705
1.52761
1.54445
1.55573
1.56973
1.5833
1.60004
1.62187
1.63426
1.65288
1.67197
1.69687
1.71738
1.73678
1.75725
1.78089
1.39879
1.38536
1.37377
1.37041
1.37252
1.37288
1.37688
1.38044
1.38375
1.38812
1.39308
1.39799
1.40577
1.41107
1.418
1.42489
1.43266
1.44003
1.44819
1.45704
1.46394
1.47489
1.4835
1.49408
1.50691
1.5176
1.53413
1.54574
1.5597
1.57354
1.58981
1.61148
1.62437
1.6425
1.66107
1.68512
1.7059
1.72458
1.74468
1.76754
1.39879
1.37505
1.36424
1.36097
1.36348
1.36403
1.36823
1.37172
1.37499
1.37923
1.38355
1.38809
1.39519
1.40136
1.40848
1.4157
1.42355
1.43137
1.44013
1.44831
1.45566
1.4661
1.47466
1.48427
1.49643
1.50721
1.52331
1.53522
1.5493
1.56332
1.57963
1.60056
1.61407
1.63181
1.6504
1.67308
1.69409
1.71243
1.73169
1.75405
1.37698
1.36433
1.35376
1.35045
1.35302
1.35385
1.35828
1.36199
1.36551
1.36989
1.37395
1.37757
1.38418
1.39045
1.39763
1.40484
1.41259
1.42076
1.43039
1.43818
1.44638
1.45622
1.46533
1.47412
1.48544
1.49614
1.51121
1.52316
1.53758
1.55165
1.56786
1.58827
1.60224
1.62046
1.63903
1.66029
1.68163
1.69953
1.71837
1.73961
1.37698
1.35302
1.34267
1.33943
1.34174
1.34308
1.34731
1.35142
1.3552
1.3597
1.36378
1.36723
1.37289
1.37917
1.38638
1.39358
1.40089
1.40935
1.41918
1.42721
1.43608
1.4459
1.45544
1.46385
1.47431
1.48487
1.49929
1.51074
1.52558
1.53938
1.55592
1.57547
1.58958
1.60858
1.62774
1.6476
1.66879
1.68684
1.70481
1.72546
1.35094
1.3405
1.33029
1.3271
1.32913
1.33074
1.33464
1.33867
1.34267
1.34725
1.35231
1.35569
1.36136
1.36738
1.37447
1.38129
1.38807
1.39594
1.40602
1.41382
1.42337
1.43286
1.44351
1.4524
1.46259
1.47356
1.48703
1.4979
1.51269
1.5261
1.5422
1.56174
1.57597
1.59542
1.61548
1.63514
1.65589
1.6742
1.69196
1.71105
1.35094
1.32738
1.31734
1.3142
1.31591
1.31794
1.32135
1.32539
1.32951
1.33415
1.3397
1.34364
1.34917
1.35496
1.36195
1.3685
1.37479
1.38199
1.39193
1.39986
1.40985
1.41923
1.43068
1.44023
1.45015
1.46163
1.47468
1.48473
1.49945
1.51251
1.52835
1.5477
1.56178
1.58163
1.60223
1.6222
1.64245
1.66112
1.67899
1.69722
1.321
1.31315
1.30326
1.30003
1.30151
1.30392
1.30709
1.31097
1.31495
1.31955
1.32511
1.32961
1.33518
1.34115
1.348
1.35414
1.36052
1.3669
1.37658
1.38449
1.39453
1.40321
1.41539
1.42586
1.43622
1.44831
1.46149
1.47155
1.48602
1.49906
1.51427
1.53347
1.54709
1.5665
1.58766
1.60818
1.62816
1.64779
1.66649
1.6838
1.321
1.29836
1.28865
1.2853
1.2868
1.28922
1.29209
1.29606
1.29982
1.30442
1.30978
1.31466
1.32046
1.32666
1.33343
1.33932
1.34597
1.35155
1.36115
1.36877
1.37899
1.38701
1.39952
1.41077
1.42126
1.4342
1.44724
1.45772
1.47188
1.48533
1.50024
1.51912
1.53262
1.55116
1.57225
1.59358
1.61335
1.63335
1.65351
1.6706
1.28718
1.28255
1.2732
1.26957
1.27081
1.2733
1.27559
1.27976
1.28321
1.28816
1.29275
1.29807
1.30384
1.31029
1.31727
1.32312
1.33055
1.33624
1.34557
1.35318
1.36372
1.37082
1.38313
1.39438
1.40497
1.41783
1.43111
1.44215
1.4567
1.47091
1.48656
1.50535
1.51825
1.53632
1.55698
1.57791
1.5973
1.61775
1.63867
1.65669
1.28718
1.26608
1.25713
1.25333
1.25471
1.25676
1.25877
1.26311
1.26609
1.27142
1.27547
1.28061
1.28677
1.29341
1.30055
1.30647
1.31452
1.32041
1.32984
1.33695
1.34799
1.35476
1.36639
1.37762
1.38828
1.401
1.41416
1.42601
1.4406
1.4558
1.472
1.49095
1.50398
1.52101
1.54138
1.56177
1.58092
1.60154
1.62313
1.64181
1.24861
1.24786
1.23978
1.23597
1.23755
1.23985
1.24137
1.24577
1.2484
1.25378
1.25748
1.26274
1.26875
1.27546
1.28261
1.28882
1.2971
1.30328
1.31307
1.32001
1.33153
1.33866
1.34999
1.36074
1.37122
1.3834
1.39629
1.40845
1.42277
1.4382
1.45456
1.47364
1.48781
1.50487
1.5245
1.5445
1.56461
1.58507
1.60607
1.62457
1.24861
1.2292
1.22187
1.21815
1.22003
1.22223
1.224
1.22793
1.23031
1.23572
1.23919
1.24434
1.25039
1.25707
1.26424
1.27072
1.27905
1.28567
1.29565
1.30265
1.31453
1.32231
1.33329
1.34354
1.35425
1.36546
1.37812
1.39055
1.40473
1.42011
1.43675
1.45574
1.47086
1.48823
1.50766
1.52676
1.54752
1.56827
1.58858
1.60678
1.24861
1.21081
1.20381
1.2001
1.20187
1.20421
1.20628
1.21008
1.21258
1.2177
1.2212
1.22637
1.23193
1.23878
1.24547
1.25255
1.26047
1.26697
1.2772
1.28416
1.29554
1.30488
1.31578
1.32637
1.33758
1.34869
1.36098
1.37391
1.38717
1.40177
1.4181
1.43664
1.45295
1.47026
1.48838
1.50751
1.52893
1.54988
1.57005
1.58701
1.20916
1.19195
1.18524
1.18161
1.1832
1.18582
1.18808
1.1916
1.19446
1.19921
1.20276
1.20782
1.21323
1.22004
1.22632
1.23369
1.24135
1.24779
1.25786
1.26569
1.27606
1.28658
1.29784
1.30865
1.32037
1.33149
1.34339
1.35686
1.36979
1.383
1.39911
1.41699
1.4338
1.45191
1.46919
1.48777
1.50982
1.53095
1.55126
1.56744
1.20916
1.17203
1.16542
1.16192
1.16317
1.16559
1.16804
1.17119
1.17434
1.179
1.18295
1.18796
1.19341
1.2003
1.20622
1.2141
1.22165
1.22822
1.23807
1.24609
1.25571
1.26697
1.27816
1.28958
1.30188
1.31333
1.32544
1.33955
1.35254
1.36553
1.381
1.39824
1.41562
1.43363
1.45046
1.46911
1.48985
1.51049
1.531
1.547
1.16462
1.15159
1.14507
1.14172
1.14267
1.14493
1.1473
1.15023
1.15367
1.15822
1.16254
1.1675
1.17318
1.18005
1.18562
1.19369
1.20139
1.20816
1.21774
1.22627
1.23482
1.24662
1.2577
1.26993
1.28232
1.29469
1.30687
1.32176
1.33497
1.34775
1.36282
1.37908
1.39673
1.41501
1.4313
1.45006
1.47002
1.48958
1.50993
1.52635
1.16462
1.12835
1.12236
1.11905
1.12042
1.12247
1.12503
1.12784
1.13151
1.13596
1.1404
1.14537
1.15127
1.15804
1.16372
1.17174
1.17957
1.18647
1.19578
1.2047
1.21271
1.22407
1.2352
1.24745
1.25957
1.27252
1.28495