/*--------------------------------*- C++ -*----------------------------------*\
| =========                 |                                                 |
| \\      /  F ield         | OpenFOAM: The Open Source CFD Toolbox           |
|  \\    /   O peration     | Version:  2506                                  |
|   \\  /    A nd           | Website:  www.openfoam.com                      |
|    \\/     M anipulation  |                                                 |
\*---------------------------------------------------------------------------*/
FoamFile
{
    version     2.0;
    format      ascii;
    arch        "LSB;label=32;scalar=64";
    class       volScalarField;
    location    "6000";
    object      nut;
}
// * * * * * * * * * * * * * * * * * * * * * * * * * * * * * * * * * * * * * //

dimensions      [0 2 -1 0 0 0 0];

internalField   nonuniform List<scalar> 
72100
(
1.01929e-08
9.27285e-09
8.86889e-09
8.68447e-09
8.62432e-09
8.6332e-09
8.60892e-09
8.56712e-09
8.5258e-09
8.50651e-09
8.52458e-09
8.55085e-09
8.58883e-09
8.63451e-09
8.63004e-09
8.59305e-09
8.56539e-09
8.58465e-09
1.00281e-08
9.6688e-09
8.89817e-09
1.04389e-08
9.2714e-09
9.51984e-09
9.91477e-09
8.81961e-09
1.03446e-08
8.67301e-09
1.02507e-08
8.62449e-09
1.01223e-08
8.49869e-09
1.0104e-08
8.36608e-09
9.73451e-09
8.63368e-09
8.96772e-09
9.04722e-09
8.17902e-09
9.63511e-09
4.89794e-07
4.32118e-07
4.14031e-07
4.05691e-07
4.03039e-07
4.03393e-07
4.02163e-07
4.00226e-07
3.98357e-07
3.97342e-07
3.97904e-07
3.98823e-07
4.00251e-07
4.02195e-07
4.01898e-07
4.0004e-07
3.98613e-07
3.99153e-07
4.03828e-07
4.0792e-07
4.07973e-07
4.09509e-07
4.08353e-07
4.04389e-07
4.06949e-07
4.02342e-07
4.02725e-07
3.96004e-07
3.99183e-07
3.95407e-07
3.95794e-07
3.9062e-07
3.89499e-07
3.83027e-07
3.84853e-07
3.77562e-07
3.73667e-07
3.65835e-07
3.58296e-07
3.49471e-07
3.0666e-06
3.24e-06
3.1155e-06
3.05975e-06
3.04216e-06
3.04472e-06
3.03632e-06
3.02437e-06
3.01408e-06
3.00808e-06
3.01131e-06
3.01653e-06
3.02519e-06
3.0385e-06
3.03681e-06
3.02401e-06
3.01476e-06
3.01941e-06
3.03559e-06
3.05171e-06
3.06517e-06
3.06681e-06
3.06609e-06
3.05648e-06
3.03245e-06
3.02363e-06
3.00688e-06
2.98881e-06
2.99028e-06
2.98341e-06
2.96754e-06
2.94974e-06
2.9171e-06
2.88553e-06
2.86528e-06
2.83637e-06
2.7922e-06
2.75489e-06
2.69543e-06
2.60397e-06
1.13571e-05
1.12386e-05
1.08669e-05
1.07087e-05
1.06643e-05
1.06789e-05
1.06603e-05
1.0636e-05
1.06238e-05
1.06183e-05
1.06334e-05
1.06521e-05
1.06803e-05
1.07249e-05
1.07272e-05
1.06956e-05
1.06778e-05
1.07084e-05
1.07646e-05
1.08019e-05
1.0852e-05
1.08653e-05
1.08685e-05
1.08248e-05
1.07805e-05
1.07632e-05
1.07349e-05
1.06878e-05
1.06926e-05
1.06845e-05
1.06391e-05
1.06068e-05
1.05146e-05
1.04179e-05
1.03587e-05
1.02543e-05
1.01245e-05
1.00058e-05
9.83186e-06
9.53328e-06
2.62125e-05
2.49139e-05
2.42148e-05
2.39404e-05
2.38806e-05
2.39317e-05
2.39176e-05
2.39088e-05
2.39386e-05
2.39699e-05
2.40216e-05
2.40773e-05
2.41502e-05
2.42505e-05
2.42792e-05
2.42443e-05
2.42472e-05
2.43578e-05
2.44957e-05
2.45897e-05
2.47047e-05
2.47482e-05
2.47824e-05
2.47405e-05
2.46642e-05
2.47042e-05
2.46808e-05
2.46657e-05
2.46951e-05
2.47346e-05
2.46883e-05
2.47041e-05
2.45735e-05
2.44484e-05
2.43501e-05
2.42161e-05
2.39995e-05
2.38365e-05
2.35337e-05
2.29374e-05
4.31652e-05
4.23447e-05
4.1272e-05
4.08851e-05
4.08245e-05
4.09359e-05
4.09549e-05
4.10026e-05
4.11282e-05
4.1247e-05
4.13683e-05
4.14965e-05
4.16503e-05
4.18268e-05
4.19051e-05
4.18999e-05
4.19725e-05
4.22137e-05
4.24717e-05
4.26587e-05
4.2903e-05
4.30224e-05
4.30944e-05
4.3047e-05
4.30824e-05
4.31965e-05
4.33086e-05
4.33508e-05
4.34983e-05
4.36143e-05
4.36781e-05
4.38157e-05
4.37906e-05
4.36974e-05
4.37198e-05
4.35592e-05
4.34063e-05
4.32749e-05
4.295e-05
4.21741e-05
5.75614e-05
6.15752e-05
6.01206e-05
5.95917e-05
5.95196e-05
5.96972e-05
5.97755e-05
5.99097e-05
6.01569e-05
6.04059e-05
6.06313e-05
6.08668e-05
6.11371e-05
6.13991e-05
6.15327e-05
6.15895e-05
6.17773e-05
6.21667e-05
6.25648e-05
6.28689e-05
6.3276e-05
6.35479e-05
6.36514e-05
6.36619e-05
6.37313e-05
6.40736e-05
6.42494e-05
6.45361e-05
6.47805e-05
6.51023e-05
6.52829e-05
6.57029e-05
6.57927e-05
6.59543e-05
6.60729e-05
6.61327e-05
6.61309e-05
6.61748e-05
6.59302e-05
6.49905e-05
8.33698e-05
8.15619e-05
7.96104e-05
7.88551e-05
7.87319e-05
7.89599e-05
7.9116e-05
7.93527e-05
7.97089e-05
8.01062e-05
8.04723e-05
8.08503e-05
8.12588e-05
8.16011e-05
8.17836e-05
8.19343e-05
8.22739e-05
8.2796e-05
8.33368e-05
8.37721e-05
8.43641e-05
8.4801e-05
8.50111e-05
8.50378e-05
8.52634e-05
8.57622e-05
8.6224e-05
8.66317e-05
8.71776e-05
8.7568e-05
8.80532e-05
8.86712e-05
8.91127e-05
8.94219e-05
8.98633e-05
9.00713e-05
9.03791e-05
9.06836e-05
9.05575e-05
8.96668e-05
0.000109564
0.000100979
9.9398e-05
9.82932e-05
9.80485e-05
9.82879e-05
9.85139e-05
9.88653e-05
9.93069e-05
9.98506e-05
0.000100382
0.000100922
0.000101491
0.000101904
0.000102128
0.000102381
0.000102905
0.000103545
0.000104216
0.000104792
0.000105577
0.000106193
0.000106515
0.000106662
0.000106913
0.00010767
0.000108244
0.000108964
0.00010965
0.000110292
0.000110933
0.000111935
0.000112565
0.00011329
0.000113953
0.000114496
0.000115167
0.000115696
0.000115792
0.000114841
0.000121436
0.000121912
0.000119303
0.000117714
0.000117269
0.000117469
0.000117744
0.000118193
0.000118696
0.000119357
0.000120068
0.00012079
0.000121519
0.000121998
0.000122264
0.00012263
0.000123345
0.000124094
0.00012488
0.000125602
0.000126575
0.000127378
0.000127831
0.00012807
0.000128489
0.000129406
0.000130268
0.000131129
0.000132141
0.000132858
0.000133798
0.000135027
0.000136022
0.000137011
0.000138054
0.000138824
0.000139925
0.000140708
0.000140999
0.000140138
0.000139318
0.000144084
0.000139428
0.000137233
0.00013651
0.000136608
0.000136881
0.000137408
0.000137959
0.000138701
0.000139583
0.000140474
0.000141367
0.000141929
0.000142245
0.000142709
0.000143622
0.000144493
0.000145362
0.000146231
0.000147399
0.000148374
0.000148976
0.00014932
0.000149887
0.000151029
0.000151998
0.000153142
0.000154372
0.000155263
0.000156387
0.00015791
0.000159143
0.000160531
0.000161851
0.000162998
0.000164487
0.000165502
0.000166031
0.000165138
0.000165005
0.000165939
0.000159826
0.000156923
0.00015585
0.000155785
0.000156003
0.000156565
0.000157147
0.000157931
0.000158962
0.000159997
0.000161044
0.000161718
0.000162099
0.000162664
0.000163763
0.000164768
0.000165686
0.000166698
0.00016806
0.000169206
0.00016996
0.000170415
0.000171168
0.000172506
0.000173669
0.000174975
0.00017648
0.000177497
0.000178829
0.000180558
0.000182077
0.000183782
0.000185462
0.000186898
0.000188826
0.000189992
0.000190788
0.000189957
0.000183913
0.000188027
0.000180594
0.000176906
0.000175414
0.000175136
0.000175234
0.000175786
0.000176375
0.000177173
0.000178331
0.000179459
0.000180638
0.000181466
0.00018194
0.000182601
0.000183871
0.000185031
0.000185956
0.000187093
0.000188656
0.000189967
0.000190868
0.000191445
0.000192403
0.000193947
0.000195246
0.000196712
0.000198477
0.000199639
0.000201175
0.000203062
0.000204842
0.000206841
0.000208842
0.00021063
0.000212909
0.000214298
0.000215299
0.000214524
0.000228568
0.000210593
0.000201798
0.000197279
0.000195309
0.000194778
0.000194696
0.000195197
0.000195759
0.000196543
0.00019781
0.000198982
0.000200266
0.000201278
0.000201874
0.000202629
0.000204062
0.000205383
0.000206285
0.000207523
0.000209271
0.000210744
0.000211788
0.000212484
0.000213679
0.000215431
0.000216856
0.000218428
0.00022042
0.000221765
0.000223465
0.000225522
0.000227511
0.000229787
0.000232088
0.00023423
0.000236858
0.000238384
0.000239625
0.0002389
0.000237102
0.000233506
0.000223445
0.000218097
0.000215593
0.000214786
0.000214475
0.000214891
0.00021539
0.000216124
0.000217496
0.00021867
0.000220036
0.00022123
0.00022198
0.000222834
0.000224413
0.0002259
0.000226744
0.000228054
0.000229955
0.000231601
0.000232755
0.000233602
0.000235046
0.000236996
0.000238547
0.000240169
0.000242358
0.000243898
0.000245785
0.000247985
0.000250193
0.000252675
0.000255276
0.000257741
0.000260709
0.000262359
0.000263787
0.000263143
0.00025597
0.000256695
0.000245527
0.000239387
0.000236312
0.000235222
0.000234649
0.000234948
0.00023536
0.000236007
0.000237468
0.00023864
0.000240047
0.0002414
0.000242315
0.000243286
0.000244992
0.000246653
0.000247423
0.000248754
0.00025079
0.000252592
0.000253822
0.000254857
0.000256544
0.000258678
0.000260357
0.000262009
0.000264336
0.000266086
0.000268162
0.00027051
0.000272943
0.000275597
0.000278451
0.000281218
0.000284483
0.000286283
0.000287869
0.000287278
0.000301097
0.000280113
0.000268032
0.000261167
0.000257519
0.000256144
0.000255293
0.000255451
0.000255776
0.000256285
0.000257807
0.000258999
0.000260418
0.00026187
0.000262926
0.000264055
0.000265868
0.000267697
0.000268405
0.000269716
0.000271857
0.000273776
0.000275051
0.000276286
0.000278227
0.000280503
0.000282328
0.000284002
0.000286421
0.000288365
0.000290625
0.000293122
0.000295794
0.000298618
0.000301653
0.00030469
0.000308209
0.00031018
0.000311932
0.00031135
0.000323533
0.000303635
0.000290925
0.000283447
0.000279238
0.000277582
0.00027645
0.000276438
0.000276709
0.000277029
0.000278585
0.000279799
0.000281218
0.000282689
0.000283861
0.00028518
0.00028708
0.000289055
0.000289725
0.000291016
0.000293219
0.0002952
0.000296499
0.000297942
0.000300118
0.000302497
0.000304505
0.000306197
0.000308683
0.000310776
0.000313204
0.000315836
0.000318775
0.000321774
0.00032493
0.000328197
0.000331909
0.000334046
0.000336004
0.000335395
0.000347007
0.000327261
0.000314189
0.000306235
0.000301489
0.00029956
0.000298156
0.000297945
0.000298189
0.000298306
0.000299852
0.000301067
0.000302471
0.000303901
0.000305167
0.000306671
0.000308641
0.000310745
0.000311416
0.000312704
0.000314918
0.000316901
0.000318225
0.000319868
0.000322246
0.000324691
0.000326935
0.000328656
0.000331172
0.000333368
0.000335925
0.000338683
0.000341882
0.00034508
0.000348345
0.000351783
0.000355633
0.000357933
0.000360087
0.000359428
0.000371489
0.000351005
0.000337801
0.000329514
0.000324275
0.000322068
0.000320442
0.000320004
0.000320222
0.000320169
0.000321621
0.000322827
0.000324189
0.000325547
0.000326869
0.000328516
0.000330552
0.000332773
0.000333491
0.000334794
0.000336964
0.000338924
0.000340287
0.000342075
0.000344643
0.000347124
0.000349643
0.000351426
0.000353911
0.000356186
0.000358822
0.000361719
0.000365116
0.000368544
0.000371903
0.000375472
0.000379395
0.00038178
0.000384176
0.000383495
0.000377218
0.000374847
0.000361765
0.000353288
0.00034759
0.000345119
0.000343324
0.00034267
0.000342806
0.000342655
0.000343919
0.000345102
0.000346434
0.000347684
0.000349031
0.000350747
0.000352825
0.000355164
0.000355965
0.00035729
0.000359369
0.000361328
0.000362723
0.000364636
0.000367334
0.000369845
0.000372638
0.000374525
0.000376921
0.000379265
0.000381954
0.000385001
0.000388511
0.000392181
0.000395649
0.000399352
0.000403231
0.000405667
0.000408261
0.000407549
0.000416643
0.000398867
0.00038605
0.000377508
0.000371418
0.00036871
0.000366779
0.000365945
0.000365932
0.000365745
0.000366748
0.000367914
0.000369259
0.000370368
0.000371695
0.000373432
0.000375522
0.000377955
0.00037883
0.000380163
0.000382149
0.00038414
0.000385572
0.000387562
0.000390331
0.000392875
0.000395909
0.000397958
0.00040021
0.000402642
0.000405354
0.000408555
0.000412101
0.000416001
0.000419619
0.000423445
0.000427211
0.00042958
0.000432381
0.000431648
0.000439783
0.000423035
0.000410619
0.000402103
0.000395718
0.000392844
0.000390803
0.000389806
0.000389609
0.000389397
0.000390131
0.00039131
0.000392731
0.000393672
0.000394923
0.000396667
0.000398722
0.000401207
0.00040213
0.000403423
0.000405328
0.000407384
0.000408856
0.000410866
0.000413638
0.000416225
0.000419491
0.000421744
0.000423815
0.000426356
0.000429085
0.000432399
0.000435956
0.000440013
0.000443814
0.000447734
0.000451336
0.000453612
0.000456576
0.000455887
0.000462702
0.000447388
0.000435418
0.000427009
0.000420458
0.0004175
0.000415381
0.000414219
0.000413857
0.000413599
0.000414094
0.000415326
0.000416869
0.000417636
0.000418756
0.000420492
0.000422465
0.000424956
0.000425883
0.000427115
0.000428939
0.00043106
0.0004326
0.000434561
0.000437284
0.000439913
0.00044343
0.000445898
0.000447754
0.000450416
0.000453159
0.000456544
0.000460118
0.000464254
0.000468203
0.000472175
0.000475595
0.000477751
0.000480855
0.00048031
0.000489607
0.000471902
0.000460393
0.000452194
0.000445603
0.000442651
0.0004405
0.000439183
0.00043869
0.000438379
0.000438679
0.000439947
0.000441647
0.000442268
0.000443216
0.000444901
0.000446746
0.000449203
0.000450095
0.000451275
0.000453004
0.000455143
0.000456831
0.000458717
0.000461341
0.000463978
0.000467715
0.000470428
0.000472049
0.000474811
0.000477568
0.000481009
0.0004846
0.000488769
0.000492756
0.000496736
0.000500002
0.000502026
0.000505231
0.000504846
0.000510693
0.000496486
0.000485575
0.000477716
0.000471211
0.000468355
0.000466184
0.000464757
0.000464175
0.000463821
0.000463955
0.000465239
0.000467057
0.000467602
0.000468361
0.000469947
0.000471634
0.000474027
0.000474822
0.000475971
0.0004776
0.000479766
0.000481594
0.000483422
0.00048595
0.000488529
0.000492425
0.000495347
0.000496756
0.000499588
0.000502352
0.000505862
0.00050945
0.000513589
0.000517484
0.000521433
0.000524577
0.000526527
0.000529738
0.000529557
0.000536831
0.000521203
0.000510965
0.000503593
0.000497257
0.000494541
0.0004924
0.000490926
0.000490262
0.000489901
0.000489935
0.00049112
0.000493042
0.000493566
0.000494163
0.000495591
0.00049714
0.000499493
0.000500153
0.000501249
0.000502823
0.000504975
0.000506886
0.000508656
0.000511157
0.000513639
0.00051752
0.000520627
0.000521895
0.000524807
0.000527539
0.00053115
0.000534654
0.000538695
0.000542352
0.000546278
0.000549355
0.000551175
0.000554442
0.000554407
0.000557296
0.00054608
0.000536653
0.000529922
0.000523739
0.000521184
0.000519142
0.000517688
0.000516972
0.000516642
0.000516569
0.000517585
0.000519607
0.000520182
0.000520596
0.000521849
0.000523356
0.000525679
0.000526195
0.000527196
0.000528807
0.000530891
0.000532786
0.000534461
0.000536998
0.000539377
0.000543095
0.000546357
0.000547556
0.000550563
0.000553173
0.000556899
0.000560206
0.000564096
0.000567407
0.000571376
0.000574356
0.000576056
0.000579327
0.000579387
0.000583956
0.000571278
0.000562603
0.000556651
0.000550612
0.000548205
0.00054635
0.000544955
0.000544235
0.000543959
0.000543813
0.000544601
0.000546692
0.000547401
0.000547651
0.000548713
0.000550237
0.000552513
0.000552973
0.00055383
0.000555578
0.000557505
0.00055931
0.000560889
0.000563449
0.00056574
0.00056923
0.000572565
0.000573742
0.000576864
0.000579268
0.000583036
0.000586106
0.000589783
0.000592724
0.000596704
0.000599587
0.00060108
0.000604446
0.000604407
0.000609876
0.000596876
0.000588931
0.000583862
0.000578005
0.000575699
0.000574134
0.000572816
0.000572135
0.000571925
0.000571745
0.00057226
0.000574378
0.000575279
0.000575422
0.000576324
0.000577847
0.000580044
0.000580531
0.000581296
0.000583222
0.000584919
0.000586606
0.000588118
0.000590631
0.00059286
0.00059609
0.000599341
0.000600473
0.000603761
0.000605906
0.000609573
0.000612351
0.000615813
0.000618453
0.000622338
0.00062514
0.000626422
0.000629861
0.00062962
0.000635109
0.000622816
0.000615619
0.00061143
0.000605934
0.000603685
0.00060245
0.000601275
0.000600645
0.000600508
0.000600344
0.000600623
0.000602605
0.000603742
0.000603878
0.000604653
0.000606155
0.000608248
0.000608841
0.000609559
0.000611665
0.000613092
0.000614658
0.000616177
0.000618532
0.000620697
0.000623675
0.00062671
0.000627689
0.000631149
0.000633104
0.000636562
0.000638924
0.00064216
0.000644661
0.000648382
0.000651086
0.000652089
0.000655521
0.000654993
0.000619101
0.000649152
0.000642653
0.000639236
0.000634342
0.000632186
0.00063119
0.000630315
0.000629705
0.000629662
0.000629562
0.000629672
0.000631367
0.000632733
0.000633004
0.000633648
0.000635113
0.000637133
0.000637839
0.00063859
0.000640793
0.000642
0.000643393
0.000644994
0.000647108
0.000649164
0.00065187
0.000654623
0.000655377
0.000658926
0.000660843
0.000664047
0.000665851
0.000668814
0.000671345
0.000674852
0.000677427
0.000678013
0.000681354
0.000680505
0.000612435
0.000676026
0.000670107
0.000667306
0.000663199
0.000661246
0.000660324
0.000659871
0.00065931
0.000659377
0.000659389
0.000659365
0.000660758
0.000662263
0.000662784
0.000663291
0.000664669
0.000666703
0.000667497
0.000668369
0.000670572
0.00067165
0.000672786
0.000674469
0.000676275
0.000678162
0.000680602
0.000682988
0.000683573
0.000687041
0.000689059
0.000692042
0.000693205
0.000695821
0.000698459
0.00070175
0.000704128
0.000704158
0.000707347
0.000706189
0.000712543
0.000703587
0.000697975
0.0006957
0.000692479
0.000690851
0.0006899
0.000689851
0.00068944
0.000689557
0.000689818
0.000689668
0.000690791
0.000692354
0.000693161
0.000693562
0.000694756
0.000696865
0.000697764
0.000698813
0.000700948
0.000702036
0.000702804
0.000704485
0.000705912
0.000707591
0.000709792
0.00071175
0.000712285
0.000715493
0.000717679
0.000720503
0.000721069
0.00072327
0.000725985
0.000729081
0.000731154
0.000730521
0.000733531
0.000732129
0.000740678
0.000731599
0.000726184
0.000724416
0.000722131
0.000720892
0.000719914
0.000720184
0.000720061
0.000720091
0.000720767
0.000720561
0.000721443
0.000722984
0.000724064
0.000724433
0.000725357
0.000727519
0.000728576
0.000729845
0.000731832
0.000733034
0.000733399
0.000734985
0.000735935
0.00073742
0.000739404
0.000740937
0.000741507
0.000744333
0.000746672
0.000749392
0.000749531
0.000751268
0.000753934
0.000756864
0.000758555
0.000757132
0.000759982
0.000758447
0.000769288
0.000759974
0.000754612
0.000753438
0.000752087
0.000751229
0.000750316
0.000750796
0.000751102
0.000750933
0.000752097
0.000751978
0.000752689
0.000754108
0.000755422
0.00075588
0.00075652
0.000758647
0.000759911
0.000761395
0.000763171
0.000764478
0.00076449
0.000765941
0.000766376
0.000767653
0.00076942
0.0007706
0.000771312
0.000773694
0.000776052
0.000778695
0.000778656
0.000779924
0.000782381
0.000785112
0.000786404
0.000784054
0.000786777
0.000785288
0.000803371
0.000788625
0.000783163
0.000782745
0.000782296
0.000781793
0.000781009
0.000781603
0.000782455
0.000782074
0.000783693
0.000783803
0.00078454
0.000785705
0.000787139
0.000787852
0.000788309
0.000790247
0.000791755
0.000793413
0.00079492
0.000796257
0.000795976
0.000797348
0.000797314
0.000798298
0.000799841
0.000800751
0.00080176
0.000803738
0.000805877
0.000808385
0.000808421
0.000809294
0.000811409
0.000813824
0.000814737
0.000811377
0.000813956
0.000812761
0.000830245
0.000817208
0.000811791
0.000812263
0.00081273
0.000812575
0.000811975
0.00081254
0.000813971
0.000813534
0.000815467
0.000815876
0.000816928
0.000817734
0.000819128
0.000820223
0.000820734
0.000822298
0.000824019
0.000825843
0.000827043
0.000828308
0.00082776
0.000829156
0.000828826
0.000829358
0.0008307
0.00083138
0.000832786
0.000834508
0.000836235
0.000838436
0.000838692
0.000839344
0.000841063
0.000842975
0.000843522
0.000839179
0.000841506
0.000840784
0.000857699
0.000845868
0.000840544
0.000841856
0.0008433
0.000843548
0.000843133
0.000843685
0.000845549
0.000845306
0.000847399
0.000848086
0.000849657
0.000850111
0.000851326
0.00085285
0.000853743
0.000854789
0.000856604
0.000858634
0.000859527
0.000860663
0.000859759
0.000861264
0.000860929
0.000860854
0.000861971
0.000862488
0.000864262
0.00086593
0.000867169
0.00086884
0.00086935
0.000869924
0.000871357
0.000872517
0.000872669
0.000867474
0.000869368
0.000869156
0.000885622
0.000874707
0.000869516
0.000871452
0.000873894
0.000874691
0.000874433
0.000875135
0.000877174
0.000877329
0.000879493
0.000880402
0.000882477
0.00088273
0.000883694
0.000885638
0.000887198
0.00088772
0.000889466
0.00089168
0.000892371
0.000893381
0.000891997
0.000893584
0.000893449
0.000892776
0.000893631
0.000894055
0.000896032
0.000897849
0.000898657
0.000899662
0.000900365
0.000900856
0.000902115
0.00090244
0.000902068
0.000896236
0.000897463
0.000897717
0.000914075
0.000903872
0.000898787
0.000901111
0.000904503
0.000905979
0.000905869
0.000906822
0.000908957
0.000909598
0.000911825
0.000912926
0.000915285
0.000915493
0.000916267
0.00091854
0.000920795
0.00092108
0.00092263
0.000924898
0.000925609
0.000926603
0.000924705
0.000926205
0.000926219
0.000925077
0.00092567
0.000926023
0.000927996
0.000930107
0.000930629
0.000931084
0.000931904
0.000932082
0.000933209
0.000932744
0.000931802
0.000925459
0.000925781
0.000926485
0.000943394
0.00093369
0.000928432
0.000931018
0.000935228
0.000937401
0.00093743
0.000938697
0.000941015
0.000942194
0.000944589
0.00094588
0.000948193
0.000948323
0.000949129
0.000951571
0.00095442
0.000954835
0.000956048
0.000958323
0.000959284
0.000960436
0.000958106
0.000959376
0.000959314
0.000957805
0.000957955
0.000958286
0.000960063
0.000962399
0.000963011
0.000963209
0.000964083
0.000963797
0.000964636
0.000963516
0.00096211
0.0009552
0.000954512
0.000955522
0.000973989
0.000964303
0.000958463
0.000961334
0.000966022
0.000968907
0.000969173
0.000970772
0.000973291
0.000975031
0.000977805
0.000979257
0.000981397
0.000981359
0.000982329
0.000984735
0.000988006
0.000988686
0.000989664
0.000991893
0.000993219
0.000994536
0.000992042
0.000993087
0.000992849
0.000990943
0.000990408
0.000990758
0.000992096
0.000994609
0.000995607
0.000995709
0.000996661
0.000995887
0.000996359
0.000994671
0.000992942
0.000985599
0.000983717
0.000984719
0.0010112
0.000995766
0.000989035
0.000992086
0.000997101
0.0010005
0.00100114
0.00100313
0.00100586
0.00100811
0.00101137
0.0010131
0.00101507
0.00101476
0.00101592
0.0010182
0.00102161
0.00102262
0.00102349
0.00102557
0.00102736
0.00102862
0.00102633
0.00102729
0.0010269
0.00102452
0.00102325
0.00102351
0.0010243
0.00102679
0.00102813
0.0010284
0.00102953
0.0010283
0.0010285
0.00102614
0.0010243
0.00101673
0.00101355
0.00101411
0.000983404
0.00102773
0.00102022
0.00102335
0.00102858
0.00103224
0.00103325
0.00103579
0.00103879
0.00104147
0.00104524
0.00104725
0.00104925
0.00104869
0.00104995
0.00105213
0.00105546
0.00105666
0.00105746
0.00105938
0.00106167
0.00106279
0.00106075
0.00106185
0.00106153
0.00105856
0.00105657
0.00105661
0.00105688
0.001059
0.00106073
0.00106112
0.00106243
0.00106099
0.001061
0.00105793
0.00105593
0.00104855
0.00104419
0.00104403
0.000977353
0.0010605
0.00105225
0.00105531
0.00106056
0.0010642
0.00106551
0.00106873
0.00107213
0.00107528
0.00107938
0.00108175
0.00108399
0.00108348
0.00108478
0.00108687
0.00109003
0.00109115
0.0010917
0.00109359
0.00109628
0.00109713
0.00109517
0.00109677
0.00109668
0.00109322
0.00109051
0.00109037
0.00109001
0.00109163
0.00109362
0.00109393
0.00109538
0.00109418
0.00109391
0.00109005
0.00108795
0.00108125
0.0010761
0.00107465
0.0011058
0.00109373
0.00108491
0.00108778
0.00109287
0.00109643
0.00109793
0.0011017
0.00110546
0.0011091
0.00111349
0.00111629
0.00111889
0.00111854
0.00111998
0.00112208
0.00112511
0.00112595
0.00112637
0.00112818
0.00113114
0.00113166
0.00112977
0.00113177
0.00113209
0.00112843
0.00112501
0.00112459
0.0011238
0.00112482
0.00112672
0.00112689
0.00112832
0.00112761
0.00112709
0.00112265
0.00112001
0.0011142
0.00110851
0.0011057
0.00114469
0.00112748
0.00111805
0.00112068
0.00112555
0.00112907
0.0011306
0.00113482
0.00113876
0.00114286
0.00114754
0.00115073
0.00115382
0.00115372
0.0011553
0.00115769
0.00116055
0.00116099
0.0011615
0.00116315
0.00116629
0.00116668
0.00116449
0.00116687
0.0011676
0.00116403
0.00116011
0.00115918
0.00115821
0.00115857
0.00116018
0.00116006
0.00116112
0.00116117
0.00116062
0.00115561
0.00115203
0.00114695
0.00114121
0.00113726
0.000991468
0.00116159
0.00115171
0.00115402
0.00115864
0.00116221
0.00116383
0.00116832
0.00117213
0.00117653
0.00118153
0.00118523
0.00118879
0.00118902
0.00119073
0.00119353
0.0011963
0.00119629
0.00119711
0.00119878
0.00120189
0.00120204
0.00119957
0.00120214
0.00120298
0.0012001
0.0011958
0.00119425
0.00119305
0.00119318
0.0011943
0.0011937
0.0011942
0.00119488
0.0011944
0.00118906
0.00118443
0.00117983
0.00117413
0.00116902
0.00121172
0.00119656
0.00118622
0.00118818
0.00119254
0.00119618
0.00119777
0.00120237
0.00120601
0.00121061
0.00121605
0.00122019
0.00122422
0.00122465
0.00122636
0.00122942
0.00123222
0.00123202
0.0012336
0.00123505
0.00123817
0.00123818
0.00123548
0.00123764
0.00123854
0.00123646
0.00123201
0.00122994
0.00122863
0.00122888
0.00122954
0.00122833
0.00122795
0.00122887
0.0012288
0.00122353
0.00121783
0.00121309
0.00120705
0.00120086
0.00125177
0.00123228
0.00122148
0.00122311
0.00122726
0.00123079
0.00123229
0.00123695
0.00124038
0.0012451
0.00125083
0.00125544
0.00125985
0.00126049
0.00126217
0.0012655
0.00126829
0.00126797
0.00127012
0.00127152
0.00127461
0.00127493
0.00127178
0.00127353
0.00127378
0.00127262
0.00126841
0.00126583
0.00126424
0.00126502
0.0012655
0.00126352
0.00126228
0.00126311
0.00126343
0.00125837
0.00125183
0.00124658
0.00124017
0.00123282
0.00100269
0.00126865
0.00125762
0.00125896
0.00126292
0.00126628
0.00126766
0.00127219
0.00127555
0.00128022
0.00128616
0.00129114
0.00129577
0.00129672
0.00129829
0.00130186
0.0013045
0.00130425
0.00130703
0.00130848
0.00131123
0.00131215
0.00130885
0.00130972
0.00130912
0.00130857
0.00130481
0.00130198
0.00130012
0.00130161
0.00130218
0.00129943
0.00129739
0.00129768
0.00129838
0.00129367
0.00128702
0.00128068
0.0012738
0.00126517
0.00132673
0.00130652
0.00129508
0.00129602
0.00130001
0.00130322
0.00130454
0.00130895
0.00131229
0.00131661
0.00132217
0.00132706
0.00133206
0.00133345
0.00133502
0.00133869
0.0013414
0.00134121
0.00134439
0.00134566
0.00134795
0.00134978
0.00134622
0.00134661
0.0013449
0.00134429
0.00134147
0.00133874
0.0013366
0.00133863
0.00133936
0.00133606
0.00133327
0.00133302
0.00133391
0.00132935
0.00132261
0.0013154
0.00130839
0.0012983
0.00136965
0.0013451
0.00133315
0.00133356
0.00133759
0.00134084
0.00134217
0.00134635
0.00134966
0.00135353
0.00135861
0.00136341
0.00136843
0.00137033
0.0013719
0.00137576
0.0013782
0.00137801
0.00138141
0.00138268
0.00138442
0.00138697
0.0013835
0.00138365
0.00138112
0.00138
0.00137787
0.00137557
0.00137325
0.00137561
0.00137665
0.0013728
0.00136943
0.00136848
0.00136929
0.00136495
0.00135822
0.0013504
0.00134314
0.00133219
0.00140517
0.00138422
0.00137197
0.00137165
0.00137573
0.00137928
0.00138062
0.00138461
0.00138805
0.00139115
0.00139556
0.00140017
0.00140511
0.00140747
0.00140907
0.0014128
0.00141512
0.00141452
0.001418
0.0014194
0.00142044
0.00142381
0.00142089
0.00142086
0.00141837
0.00141597
0.00141441
0.00141266
0.00141026
0.00141266
0.00141385
0.00140983
0.00140582
0.00140416
0.00140467
0.00140054
0.00139373
0.00138539
0.00137811
0.00136661
0.00144715
0.00142434
0.00141124
0.00140992
0.00141384
0.00141809
0.00141932
0.00142302
0.00142656
0.00142895
0.00143308
0.00143769
0.00144226
0.00144465
0.00144625
0.0014493
0.00145153
0.00145062
0.00145387
0.00145551
0.00145621
0.00146066
0.00145845
0.00145851
0.0014564
0.00145316
0.00145139
0.00145017
0.00144747
0.00144992
0.00145107
0.00144721
0.00144245
0.00144031
0.00144011
0.00143606
0.00142926
0.00142048
0.00141278
0.0013902
0.00100195
0.0014652
0.00145105
0.00144864
0.00145198
0.00145704
0.00145829
0.0014615
0.00146525
0.00146685
0.00147077
0.00147556
0.00147968
0.00148171
0.00148333
0.00148581
0.00148766
0.00148638
0.00148953
0.00149124
0.00149174
0.00149661
0.0014959
0.00149602
0.00149499
0.00149071
0.00148867
0.0014877
0.00148502
0.00148703
0.00148836
0.00148454
0.00147952
0.00147648
0.00147543
0.00147128
0.00146292
0.00143902
0.00142461
0.0014031
0.00153379
0.00150693
0.00149144
0.00148798
0.00149039
0.00149587
0.00149711
0.0014997
0.00150357
0.00150487
0.00150866
0.00151384
0.00151739
0.00151862
0.00152012
0.00152193
0.00152355
0.00152222
0.00152554
0.0015275
0.001528
0.00153323
0.0015333
0.00153378
0.00153398
0.00152945
0.00152679
0.001526
0.00152301
0.0015248
0.0015261
0.00152263
0.00151719
0.00151361
0.00151105
0.00150631
0.00147912
0.00145413
0.00143607
0.00140895
0.00158017
0.00154893
0.0015324
0.00152829
0.00152942
0.00153468
0.00153597
0.00153797
0.00154182
0.00154311
0.00154668
0.00155202
0.00155504
0.00155553
0.00155709
0.00155854
0.00155972
0.00155838
0.00156183
0.00156409
0.00156478
0.00156985
0.00157058
0.0015712
0.00157282
0.00156828
0.00156525
0.00156453
0.00156136
0.00156265
0.00156388
0.00156088
0.0015553
0.00155124
0.00154681
0.00152248
0.00149636
0.00146898
0.00144361
0.00141666
0.00161632
0.00159071
0.00157385
0.00156933
0.00156914
0.00157372
0.00157492
0.0015764
0.00157983
0.00158155
0.0015848
0.00159017
0.00159292
0.00159244
0.00159416
0.00159539
0.00159643
0.0015949
0.00159834
0.001601
0.00160205
0.00160693
0.00160782
0.00160842
0.00161112
0.00160709
0.00160404
0.00160328
0.00159989
0.00160079
0.00160153
0.00159932
0.00159348
0.00158927
0.00157264
0.00154165
0.00151636
0.00148429
0.0014601
0.00142676
0.00166142
0.00163341
0.00161543
0.00161081
0.00160984
0.0016135
0.00161438
0.00161548
0.00161843
0.00162042
0.00162313
0.00162793
0.00163058
0.00162979
0.00163179
0.00163329
0.00163426
0.00163291
0.00163537
0.00163818
0.00163955
0.00164417
0.00164538
0.00164597
0.00164979
0.00164621
0.00164346
0.00164276
0.00163904
0.00163943
0.0016393
0.00163763
0.00162806
0.00161541
0.00159075
0.00156039
0.0015294
0.00150173
0.0014724
0.00144349
0.00101786
0.001677
0.00165742
0.00165247
0.00165092
0.00165374
0.0016543
0.00165476
0.00165722
0.00165943
0.00166164
0.00166582
0.00166813
0.00166713
0.00166937
0.00167105
0.00167221
0.00167114
0.00167285
0.00167519
0.00167685
0.00168128
0.00168269
0.00168326
0.00168774
0.00168497
0.00168268
0.00168204
0.00167825
0.00167611
0.00166769
0.00165194
0.0016332
0.00162057
0.00160316
0.00157247
0.00154429
0.00151359
0.00148645
0.00146103
0.00175451
0.00172162
0.00169944
0.00169402
0.00169237
0.00169442
0.00169466
0.00169454
0.00169654
0.0016985
0.00170029
0.00170327
0.00170579
0.00170503
0.00170721
0.00170925
0.00171034
0.00171012
0.00171098
0.0017126
0.00171424
0.00171811
0.00171971
0.0017167
0.00171464
0.00171577
0.00170959
0.00170886
0.00169881
0.0016909
0.00168123
0.00166784
0.00164118