/*--------------------------------*- C++ -*----------------------------------*\
| =========                 |                                                 |
| \\      /  F ield         | OpenFOAM: The Open Source CFD Toolbox           |
|  \\    /   O peration     | Version:  2506                                  |
|   \\  /    A nd           | Website:  www.openfoam.com                      |
|    \\/     M anipulation  |                                                 |
\*---------------------------------------------------------------------------*/
FoamFile
{
    version     2.0;
    format      ascii;
    arch        "LSB;label=32;scalar=64";
    class       surfaceScalarField;
    location    "6000";
    object      phi;
}
// * * * * * * * * * * * * * * * * * * * * * * * * * * * * * * * * * * * * * //

dimensions      [0 3 -1 0 0 0 0];

oriented        oriented;

internalField   nonuniform List<scalar> 
143613
(
1.16549e-06
-2.35456e-08
1.16628e-06
-6.70775e-09
1.132e-06
1.36033e-08
1.09563e-06
1.60733e-08
1.08315e-06
1.55727e-08
1.07135e-06
1.48134e-08
1.05994e-06
1.42672e-08
1.04884e-06
1.39348e-08
1.03784e-06
1.37879e-08
1.02686e-06
1.35647e-08
1.01595e-06
1.36598e-08
1.0051e-06
1.36637e-08
9.94459e-07
1.34583e-08
9.83504e-07
1.32882e-08
9.71551e-07
1.49493e-08
9.58557e-07
1.64737e-08
9.44773e-07
1.74171e-08
9.30948e-07
1.68488e-08
9.17682e-07
1.67757e-08
9.04232e-07
1.75092e-08
8.89183e-07
1.87406e-08
8.73287e-07
2.06912e-08
8.56537e-07
2.14182e-08
8.38201e-07
2.29231e-08
8.18982e-07
2.51976e-08
7.98704e-07
2.5433e-08
7.7963e-07
2.68996e-08
7.57907e-07
2.72015e-08
7.33894e-07
2.9532e-08
7.09331e-07
3.05876e-08
6.83403e-07
3.38188e-08
6.55654e-07
3.42342e-08
6.26326e-07
3.84382e-08
5.95086e-07
3.9397e-08
5.61418e-07
4.29952e-08
5.2649e-07
4.47635e-08
4.87822e-07
4.90409e-08
4.47589e-07
5.25615e-08
3.99272e-07
5.78763e-08
9.38504e-08
3.11971e-07
3.55204e-06
-6.3005e-08
3.4589e-06
-2.01881e-08
3.42996e-06
4.4048e-08
3.39242e-06
5.32138e-08
3.35587e-06
5.16697e-08
3.32146e-06
4.90886e-08
3.28814e-06
4.73639e-08
3.25572e-06
4.61539e-08
3.22369e-06
4.57927e-08
3.19156e-06
4.50919e-08
3.1595e-06
4.53779e-08
3.12777e-06
4.53753e-08
3.09671e-06
4.46975e-08
3.06468e-06
4.42607e-08
3.02943e-06
4.98186e-08
2.99104e-06
5.50273e-08
2.95102e-06
5.79653e-08
2.91094e-06
5.61323e-08
2.87154e-06
5.49016e-08
2.83171e-06
5.73941e-08
2.78804e-06
6.22816e-08
2.7411e-06
6.71562e-08
2.69153e-06
7.10089e-08
2.63742e-06
7.64225e-08
2.5803e-06
8.21508e-08
2.52095e-06
8.46985e-08
2.4602e-06
8.71958e-08
2.39607e-06
9.12517e-08
2.32874e-06
9.62311e-08
2.25611e-06
1.02915e-07
2.17876e-06
1.10615e-07
2.09675e-06
1.15326e-07
2.00888e-06
1.24998e-07
1.9155e-06
1.32458e-07
1.81675e-06
1.40152e-07
1.71207e-06
1.49897e-07
1.59833e-06
1.62219e-07
1.47737e-06
1.74632e-07
1.3367e-06
1.9425e-07
2.63833e-07
1.14255e-06
5.79251e-06
-1.17428e-07
5.9261e-06
-3.75818e-08
5.88052e-06
9.15851e-08
5.82099e-06
1.123e-07
5.76215e-06
1.09682e-07
5.70635e-06
1.04211e-07
5.65246e-06
1.00656e-07
5.60026e-06
9.78222e-08
5.54858e-06
9.73664e-08
5.49676e-06
9.61427e-08
5.44477e-06
9.67636e-08
5.39294e-06
9.6801e-08
5.34227e-06
9.54668e-08
5.29021e-06
9.48311e-08
5.23272e-06
1.06565e-07
5.16977e-06
1.1772e-07
5.10478e-06
1.23676e-07
5.0401e-06
1.20041e-07
4.97508e-06
1.17887e-07
4.9089e-06
1.228e-07
4.83788e-06
1.33383e-07
4.76078e-06
1.43887e-07
4.67839e-06
1.52028e-07
4.59021e-06
1.64226e-07
4.49716e-06
1.75489e-07
4.40034e-06
1.81237e-07
4.30037e-06
1.87077e-07
4.19444e-06
1.96535e-07
4.08343e-06
2.0701e-07
3.96365e-06
2.22033e-07
3.83602e-06
2.38283e-07
3.70108e-06
2.48852e-07
3.55635e-06
2.68945e-07
3.40255e-06
2.85468e-07
3.23951e-06
3.01243e-07
3.06528e-06
3.22843e-07
2.87738e-06
3.48017e-07
2.67713e-06
3.76879e-07
2.44683e-06
4.19586e-07
5.37158e-07
2.1525e-06
8.41393e-06
-1.86046e-07
8.44664e-06
-5.62795e-08
8.38889e-06
1.51739e-07
8.31156e-06
1.89534e-07
8.2336e-06
1.86682e-07
8.15921e-06
1.77872e-07
8.08719e-06
1.71914e-07
8.01727e-06
1.66709e-07
7.94782e-06
1.66506e-07
7.87799e-06
1.65223e-07
7.80773e-06
1.66531e-07
7.73734e-06
1.66742e-07
7.66782e-06
1.64803e-07
7.59641e-06
1.6433e-07
7.5183e-06
1.8421e-07
7.43256e-06
2.03268e-07
7.34405e-06
2.12818e-07
7.25592e-06
2.07407e-07
7.16654e-06
2.05185e-07
7.07442e-06
2.13374e-07
6.97411e-06
2.31453e-07
6.86919e-06
2.48991e-07
6.75788e-06
2.63622e-07
6.63597e-06
2.839e-07
6.50876e-06
3.03707e-07
6.37514e-06
3.1317e-07
6.23805e-06
3.24528e-07
6.09221e-06
3.41456e-07
5.93928e-06
3.59487e-07
5.77437e-06
3.86223e-07
5.59864e-06
4.13771e-07
5.41321e-06
4.32846e-07
5.21435e-06
4.66916e-07
5.00342e-06
4.96258e-07
4.77895e-06
5.24527e-07
4.54059e-06
5.6047e-07
4.28154e-06
6.04251e-07
4.00437e-06
6.5344e-07
3.68723e-06
7.29621e-07
9.08823e-07
3.29782e-06
1.10024e-05
-2.47191e-07
1.09281e-05
-7.65175e-08
1.08641e-05
2.1809e-07
1.07745e-05
2.79408e-07
1.06817e-05
2.7867e-07
1.05922e-05
2.66821e-07
1.05053e-05
2.58146e-07
1.04209e-05
2.50113e-07
1.03364e-05
2.50721e-07
1.02504e-05
2.503e-07
1.01636e-05
2.52819e-07
1.00766e-05
2.53519e-07
9.98996e-06
2.51359e-07
9.90021e-06
2.51947e-07
9.80262e-06
2.81084e-07
9.69643e-06
3.09891e-07
9.58677e-06
3.23239e-07
9.47635e-06
3.16865e-07
9.36451e-06
3.1595e-07
9.24746e-06
3.28886e-07
9.12082e-06
3.55006e-07
8.98846e-06
3.80239e-07
8.84971e-06
4.04134e-07
8.69702e-06
4.34327e-07
8.53662e-06
4.63129e-07
8.37109e-06
4.77679e-07
8.19992e-06
4.95362e-07
8.01836e-06
5.23282e-07
7.82629e-06
5.50376e-07
7.61957e-06
5.92644e-07
7.39917e-06
6.3313e-07
7.16608e-06
6.6402e-07
6.91714e-06
7.13331e-07
6.65142e-06
7.6054e-07
6.37068e-06
8.0331e-07
6.07226e-06
8.59244e-07
5.74885e-06
9.25708e-07
5.40234e-06
1.00079e-06
5.00373e-06
1.11797e-06
1.36565e-06
4.52731e-06
1.32009e-05
-3.03863e-07
1.32993e-05
-9.83842e-08
1.32346e-05
2.84761e-07
1.31388e-05
3.76059e-07
1.30361e-05
3.80797e-07
1.29353e-05
3.67111e-07
1.28368e-05
3.56006e-07
1.27407e-05
3.45257e-07
1.26437e-05
3.47309e-07
1.25445e-05
3.48889e-07
1.24435e-05
3.53222e-07
1.23416e-05
3.54962e-07
1.22395e-05
3.53162e-07
1.21333e-05
3.56331e-07
1.20182e-05
3.95153e-07
1.18934e-05
4.34824e-07
1.17648e-05
4.52477e-07
1.16341e-05
4.4675e-07
1.14998e-05
4.48712e-07
1.13607e-05
4.6787e-07
1.12112e-05
5.02143e-07
1.10529e-05
5.35478e-07
1.08849e-05
5.70457e-07
1.07072e-05
6.12151e-07
1.0521e-05
6.5065e-07
1.03264e-05
6.71228e-07
1.01244e-05
6.9753e-07
9.90838e-06
7.38212e-07
9.68056e-06
7.77551e-07
9.4354e-06
8.37299e-07
9.1746e-06
8.93462e-07
8.89973e-06
9.37703e-07
8.60618e-06
1.00506e-06
8.2942e-06
1.0723e-06
7.96087e-06
1.13389e-06
7.60521e-06
1.21243e-06
7.22292e-06
1.30503e-06
6.81237e-06
1.41225e-06
6.3469e-06
1.5757e-06
1.90257e-06
5.79466e-06
1.55381e-05
-3.59803e-07
1.55231e-05
-1.20584e-07
1.54612e-05
3.48298e-07
1.5364e-05
4.74946e-07
1.52562e-05
4.88215e-07
1.51482e-05
4.74939e-07
1.50415e-05
4.62329e-07
1.4936e-05
4.49814e-07
1.48287e-05
4.54117e-07
1.47185e-05
4.58627e-07
1.46059e-05
4.65476e-07
1.44916e-05
4.69018e-07
1.43758e-05
4.68486e-07
1.42546e-05
4.75989e-07
1.4124e-05
5.2486e-07
1.39833e-05
5.75949e-07
1.38378e-05
5.98316e-07
1.36884e-05
5.9551e-07
1.35339e-05
6.01971e-07
1.33732e-05
6.28523e-07
1.32037e-05
6.70894e-07
1.30237e-05
7.12842e-07
1.28315e-05
7.59767e-07
1.26272e-05
8.1415e-07
1.2416e-05
8.63282e-07
1.21941e-05
8.91027e-07
1.19638e-05
9.27332e-07
1.17191e-05
9.82636e-07
1.14596e-05
1.03603e-06
1.11807e-05
1.11637e-06
1.08841e-05
1.18921e-06
1.05709e-05
1.24929e-06
1.02385e-05
1.33558e-06
9.88443e-06
1.42653e-06
9.50553e-06
1.51091e-06
9.10384e-06
1.61416e-06
8.66905e-06
1.73692e-06
8.20247e-06
1.87933e-06
7.67273e-06
2.09461e-06
2.50863e-06
7.05162e-06
1.76981e-05
-3.98347e-07
1.75836e-05
-1.4118e-07
1.75258e-05
4.06858e-07
1.74304e-05
5.72395e-07
1.73213e-05
5.97045e-07
1.72095e-05
5.86982e-07
1.70972e-05
5.74267e-07
1.69846e-05
5.61634e-07
1.68689e-05
5.69337e-07
1.67501e-05
5.77385e-07
1.66278e-05
5.87169e-07
1.65029e-05
5.93784e-07
1.63754e-05
5.95541e-07
1.62412e-05
6.09059e-07
1.60969e-05
6.68115e-07
1.59427e-05
7.30677e-07
1.57828e-05
7.58391e-07
1.56166e-05
7.61211e-07
1.54435e-05
7.73641e-07
1.52639e-05
8.08565e-07
1.50754e-05
8.58403e-07
1.48776e-05
9.09577e-07
1.46651e-05
9.69101e-07
1.44398e-05
1.03709e-06
1.42067e-05
1.09755e-06
1.39642e-05
1.13405e-06
1.37098e-05
1.18198e-06
1.34392e-05
1.25304e-06
1.31518e-05
1.32254e-06
1.28426e-05
1.42583e-06
1.25146e-05
1.51668e-06
1.21693e-05
1.594e-06
1.1802e-05
1.7007e-06
1.14094e-05
1.81773e-06
1.09902e-05
1.9281e-06
1.05432e-05
2.05871e-06
1.00642e-05
2.21407e-06
9.54826e-06
2.39682e-06
8.9672e-06
2.66666e-06
3.17371e-06
8.2899e-06
1.95061e-05
-4.20664e-07
1.95007e-05
-1.57449e-07
1.94466e-05
4.60885e-07
1.93548e-05
6.66401e-07
1.9247e-05
7.04759e-07
1.91338e-05
7.00844e-07
1.90181e-05
6.89667e-07
1.89001e-05
6.79035e-07
1.87775e-05
6.9152e-07
1.86516e-05
7.03556e-07
1.85218e-05
7.16325e-07
1.83879e-05
7.27773e-07
1.82498e-05
7.33039e-07
1.81043e-05
7.53597e-07
1.79486e-05
8.23199e-07
1.77827e-05
8.96933e-07
1.76103e-05
9.30747e-07
1.74295e-05
9.41762e-07
1.72402e-05
9.6172e-07
1.70437e-05
1.00561e-06
1.68386e-05
1.06235e-06
1.66241e-05
1.12319e-06
1.63968e-05
1.19586e-06
1.6152e-05
1.27855e-06
1.58973e-05
1.35077e-06
1.56319e-05
1.39772e-06
1.53549e-05
1.45914e-06
1.50609e-05
1.5467e-06
1.4749e-05
1.63347e-06
1.44137e-05
1.76191e-06
1.40579e-05
1.87212e-06
1.36833e-05
1.96763e-06
1.32861e-05
2.09624e-06
1.28628e-05
2.24121e-06
1.24083e-05
2.38088e-06
1.1926e-05
2.5409e-06
1.14053e-05
2.73162e-06
1.08451e-05
2.95845e-06
1.02165e-05
3.28508e-06
3.88943e-06
9.48782e-06
2.1213e-05
-4.33563e-07
2.12864e-05
-1.67644e-07
2.1235e-05
5.11769e-07
2.11476e-05
7.56108e-07
2.10423e-05
8.10029e-07
2.09292e-05
8.1479e-07
2.08118e-05
8.06849e-07
2.06897e-05
8.00448e-07
2.05616e-05
8.19445e-07
2.04297e-05
8.36165e-07
2.02936e-05
8.51462e-07
2.0152e-05
8.69586e-07
2.00048e-05
8.79804e-07
1.98497e-05
9.07887e-07
1.96839e-05
9.88669e-07
1.95081e-05
1.0732e-06
1.9325e-05
1.11368e-06
1.91317e-05
1.13503e-06
1.89282e-05
1.16414e-06
1.87171e-05
1.21747e-06
1.84974e-05
1.28093e-06
1.82682e-05
1.35187e-06
1.80259e-05
1.43756e-06
1.77679e-05
1.53678e-06
1.74963e-05
1.62066e-06
1.72133e-05
1.67994e-06
1.69161e-05
1.75703e-06
1.66008e-05
1.86156e-06
1.62674e-05
1.9657e-06
1.59086e-05
2.12145e-06
1.55282e-05
2.25225e-06
1.51285e-05
2.36695e-06
1.47043e-05
2.51841e-06
1.42515e-05
2.69351e-06
1.37658e-05
2.86536e-06
1.32477e-05
3.05669e-06
1.26921e-05
3.28555e-06
1.20929e-05
3.55871e-06
1.14256e-05
3.94457e-06
4.64978e-06
1.06552e-05
2.2997e-05
-4.35547e-07
2.29714e-05
-1.70696e-07
2.29215e-05
5.60483e-07
2.28381e-05
8.41015e-07
2.27357e-05
9.12438e-07
2.26238e-05
9.27566e-07
2.25056e-05
9.24829e-07
2.23807e-05
9.24773e-07
2.22482e-05
9.52006e-07
2.21109e-05
9.74582e-07
2.19695e-05
9.91407e-07
2.18214e-05
1.01802e-06
2.16662e-05
1.03466e-06
2.15027e-05
1.0705e-06
2.13283e-05
1.16292e-06
2.11438e-05
1.25794e-06
2.09513e-05
1.30598e-06
2.07474e-05
1.33867e-06
2.0532e-05
1.37874e-06
2.0308e-05
1.44212e-06
2.00752e-05
1.51255e-06
1.98328e-05
1.59386e-06
1.9577e-05
1.69252e-06
1.93053e-05
1.80862e-06
1.90195e-05
1.90604e-06
1.87167e-05
1.97867e-06
1.83998e-05
2.07348e-06
1.80663e-05
2.1959e-06
1.77134e-05
2.31772e-06
1.73341e-05
2.5016e-06
1.69315e-05
2.65531e-06
1.6508e-05
2.78938e-06
1.60598e-05
2.96526e-06
1.55817e-05
3.17086e-06
1.50693e-05
3.3776e-06
1.45229e-05
3.60279e-06
1.39337e-05
3.87136e-06
1.32995e-05
4.19505e-06
1.25942e-05
4.64071e-06
5.44826e-06
1.17847e-05
2.45436e-05
-4.2414e-07
2.45726e-05
-1.66315e-07
2.45229e-05
6.08688e-07
2.44428e-05
9.2201e-07
2.43434e-05
1.01232e-06
2.42332e-05
1.03851e-06
2.41151e-05
1.04304e-06
2.39881e-05
1.05113e-06
2.3852e-05
1.08824e-06
2.371e-05
1.11838e-06
2.35637e-05
1.13572e-06
2.34101e-05
1.17215e-06
2.32481e-05
1.19651e-06
2.30773e-05
1.24048e-06
2.28953e-05
1.34508e-06
2.2703e-05
1.45043e-06
2.25023e-05
1.50681e-06
2.22894e-05
1.55101e-06
2.20639e-05
1.60394e-06
2.18287e-05
1.67796e-06
2.1584e-05
1.75629e-06
2.13292e-05
1.84857e-06
2.10613e-05
1.95982e-06
2.07773e-05
2.09284e-06
2.04782e-05
2.20491e-06
2.01633e-05
2.29289e-06
1.9829e-05
2.40654e-06
1.94754e-05
2.54867e-06
1.91047e-05
2.68684e-06
1.87067e-05
2.90007e-06
1.82838e-05
3.07844e-06
1.78393e-05
3.23336e-06
1.73691e-05
3.43344e-06
1.68685e-05
3.67115e-06
1.63303e-05
3.91473e-06
1.57557e-05
4.17745e-06
1.51365e-05
4.4884e-06
1.44693e-05
4.86211e-06
1.37337e-05
5.37036e-06
6.27855e-06
1.28917e-05
2.61692e-05
-4.03696e-07
2.6111e-05
-1.5477e-07
2.60606e-05
6.57614e-07
2.59829e-05
9.99883e-07
2.58861e-05
1.10969e-06
2.5778e-05
1.14696e-06
2.56602e-05
1.16076e-06
2.55318e-05
1.17863e-06
2.53929e-05
1.22722e-06
2.52466e-05
1.26696e-06
2.50959e-05
1.28424e-06
2.49377e-05
1.33057e-06
2.47699e-05
1.36391e-06
2.45926e-05
1.41708e-06
2.44039e-05
1.53398e-06
2.42047e-05
1.64945e-06
2.39964e-05
1.71527e-06
2.37758e-05
1.7707e-06
2.35417e-05
1.83764e-06
2.32964e-05
1.92342e-06
2.30409e-05
2.01125e-06
2.27745e-05
2.11449e-06
2.2495e-05
2.23865e-06
2.22e-05
2.38767e-06
2.18889e-05
2.5154e-06
2.15599e-05
2.62097e-06
2.12099e-05
2.75601e-06
2.08398e-05
2.91892e-06
2.04523e-05
3.07203e-06
2.00376e-05
3.31476e-06
1.9596e-05
3.52121e-06
1.91308e-05
3.69774e-06
1.86401e-05
3.92313e-06
1.81173e-05
4.19248e-06
1.75562e-05
4.47561e-06
1.69559e-05
4.77686e-06
1.63106e-05
5.13336e-06
1.56149e-05
5.5585e-06
1.48474e-05
6.13039e-06
7.14165e-06
1.39743e-05
2.76206e-05
-3.78192e-07
2.76033e-05
-1.36698e-07
2.75515e-05
7.07767e-07
2.74751e-05
1.07574e-06
2.73806e-05
1.20496e-06
2.72746e-05
1.25295e-06
2.71575e-05
1.2782e-06
2.70282e-05
1.30734e-06
2.68873e-05
1.36843e-06
2.67371e-05
1.41959e-06
2.6582e-05
1.43703e-06
2.642e-05
1.49276e-06
2.62474e-05
1.53639e-06
2.60642e-05
1.5999e-06
2.58694e-05
1.72895e-06
2.56639e-05
1.8547e-06
2.54486e-05
1.93122e-06
2.52212e-05
1.9967e-06
2.49797e-05
2.07905e-06
2.47253e-05
2.17806e-06
2.44597e-05
2.27673e-06
2.41823e-05
2.3914e-06
2.38918e-05
2.52906e-06
2.35863e-05
2.69263e-06
2.3264e-05
2.83748e-06
2.29224e-05
2.96177e-06
2.25578e-05
3.12048e-06
2.21723e-05
3.30586e-06
2.17686e-05
3.47378e-06
2.13363e-05
3.74412e-06
2.08774e-05
3.98107e-06
2.03931e-05
4.18185e-06
1.98829e-05
4.43169e-06
1.9341e-05
4.73358e-06
1.87584e-05
5.05667e-06
1.81346e-05
5.40013e-06
1.74618e-05
5.80377e-06
1.67383e-05
6.28451e-06
1.59439e-05
6.91944e-06
8.02886e-06
1.50429e-05
2.90438e-05
-3.40588e-07
2.90585e-05
-1.13131e-07
2.90052e-05
7.59626e-07
2.89296e-05
1.15089e-06
2.88371e-05
1.29871e-06
2.87329e-05
1.357e-06
2.86164e-05
1.39535e-06
2.84866e-05
1.43675e-06
2.83442e-05
1.51113e-06
2.81906e-05
1.5756e-06
2.80314e-05
1.59438e-06
2.78661e-05
1.65836e-06
2.76893e-05
1.71303e-06
2.75006e-05
1.78854e-06
2.73003e-05
1.92989e-06
2.70889e-05
2.06597e-06
2.68671e-05
2.15402e-06
2.66336e-05
2.22869e-06
2.63854e-05
2.3278e-06
2.61227e-05
2.44103e-06
2.58475e-05
2.55252e-06
2.55597e-05
2.67897e-06
2.52587e-05
2.83072e-06
2.49429e-05
3.00816e-06
2.46102e-05
3.17017e-06
2.42568e-05
3.31488e-06
2.38791e-05
3.49852e-06
2.34783e-05
3.70875e-06
2.30592e-05
3.8922e-06
2.26141e-05
4.18713e-06
2.21393e-05
4.45589e-06
2.16366e-05
4.68545e-06
2.11072e-05
4.95905e-06
2.0546e-05
5.29435e-06
1.99428e-05
5.65967e-06
1.92957e-05
6.04686e-06
1.85985e-05
6.50017e-06
1.78485e-05
7.03467e-06
1.7029e-05
7.73612e-06
8.94258e-06
1.61028e-05
3.05469e-05
-2.96239e-07
3.04919e-05
-8.51074e-08
3.04373e-05
8.12675e-07
3.03622e-05
1.22532e-06
3.02713e-05
1.39065e-06
3.01686e-05
1.45931e-06
3.00523e-05
1.51185e-06
2.99222e-05
1.56648e-06
2.97789e-05
1.65462e-06
2.96226e-05
1.73414e-06
2.94595e-05
1.75633e-06
2.9291e-05
1.82668e-06
2.91104e-05
1.89309e-06
2.89167e-05
1.98251e-06
2.87111e-05
2.13611e-06
2.84942e-05
2.28249e-06
2.82665e-05
2.38288e-06
2.80273e-05
2.46633e-06
2.77728e-05
2.58253e-06
2.75025e-05
2.71142e-06
2.72182e-05
2.83799e-06
2.69204e-05
2.97611e-06
2.66091e-05
3.14307e-06
2.62833e-05
3.33339e-06
2.59403e-05
3.51261e-06
2.55759e-05
3.67933e-06
2.51864e-05
3.88755e-06
2.47715e-05
4.12633e-06
2.43375e-05
4.32539e-06
2.38797e-05
4.64315e-06
2.339e-05
4.94576e-06
2.28685e-05
5.2078e-06
2.23204e-05
5.5051e-06
2.17397e-05
5.87396e-06
2.11167e-05
6.28397e-06
2.04484e-05
6.71481e-06
1.97288e-05
7.22e-06
1.89543e-05
7.81053e-06
1.81084e-05
8.5791e-06
9.88386e-06
1.71585e-05
3.19434e-05
-2.50803e-07
3.19106e-05
-5.344e-08
3.18551e-05
8.66339e-07
3.17804e-05
1.29916e-06
3.16907e-05
1.48112e-06
3.15889e-05
1.56055e-06
3.14728e-05
1.6281e-06
3.13424e-05
1.69704e-06
3.11986e-05
1.79857e-06
3.10402e-05
1.89421e-06
3.08735e-05
1.92263e-06
3.07015e-05
1.99801e-06
3.05175e-05
2.07671e-06
3.03192e-05
2.18134e-06
3.01085e-05
2.34734e-06
2.98863e-05
2.50424e-06
2.96531e-05
2.61726e-06
2.94084e-05
2.70939e-06
2.91479e-05
2.84314e-06
2.88705e-05
2.98883e-06
2.85775e-05
3.13238e-06
2.82701e-05
3.28273e-06
2.79489e-05
3.46567e-06
2.7613e-05
3.66821e-06
2.72599e-05
3.86536e-06
2.6885e-05
4.05438e-06
2.6485e-05
4.28707e-06
2.60572e-05
4.5569e-06
2.56089e-05
4.77312e-06
2.51379e-05
5.11181e-06
2.46342e-05
5.45017e-06
2.40964e-05
5.74766e-06
2.35298e-05
6.06954e-06
2.29296e-05
6.47172e-06
2.22873e-05
6.92417e-06
2.15985e-05
7.40281e-06
2.08558e-05
7.95964e-06
2.00573e-05
8.60956e-06
1.91873e-05
9.44778e-06
1.08463e-05
1.82143e-05
3.33514e-05
-1.97556e-07
3.33207e-05
-1.87116e-08
3.3265e-05
9.20224e-07
3.3191e-05
1.3727e-06
3.31022e-05
1.571e-06
3.30009e-05
1.66156e-06
3.28848e-05
1.74442e-06
3.27539e-05
1.82879e-06
3.26095e-05
1.94291e-06
3.24497e-05
2.05495e-06
3.22798e-05
2.09301e-06
3.21042e-05
2.17306e-06
3.19166e-05
2.264e-06
3.17139e-05
2.38486e-06
3.14982e-05
2.56383e-06
3.12709e-05
2.73146e-06
3.10327e-05
2.85668e-06
3.07825e-05
2.95813e-06
3.0516e-05
3.11026e-06
3.02321e-05
3.27292e-06
2.99309e-05
3.43533e-06
2.96143e-05
3.59897e-06
2.92834e-05
3.79814e-06
2.89377e-05
4.01314e-06
2.85745e-05
4.22868e-06
2.81892e-05
4.44026e-06
2.77797e-05
4.69673e-06
2.73404e-05
4.99885e-06
2.68784e-05
5.23534e-06
2.63944e-05
5.59323e-06
2.58771e-05
5.9692e-06
2.53231e-05
6.30403e-06
2.47382e-05
6.65387e-06
2.41211e-05
7.08769e-06
2.34604e-05
7.58327e-06
2.2751e-05
8.11239e-06
2.19875e-05
8.72108e-06
2.11649e-05
9.43266e-06
2.02698e-05
1.03415e-05
1.18242e-05
1.92748e-05
3.47813e-05
-1.46827e-07
3.47287e-05
1.8902e-08
3.46731e-05
9.73815e-07
3.46e-05
1.44541e-06
3.45118e-05
1.66025e-06
3.44107e-05
1.76238e-06
3.42945e-05
1.86071e-06
3.41627e-05
1.96209e-06
3.40177e-05
2.08778e-06
3.38572e-05
2.21566e-06
3.36845e-05
2.26676e-06
3.3505e-05
2.35209e-06
3.33137e-05
2.4551e-06
3.31067e-05
2.59313e-06
3.2886e-05
2.78498e-06
3.26538e-05
2.96382e-06
3.24108e-05
3.10085e-06
3.2155e-05
3.21276e-06
3.18825e-05
3.38334e-06
3.15924e-05
3.56352e-06
3.12835e-05
3.74588e-06
3.09582e-05
3.92416e-06
3.06181e-05
4.1401e-06
3.02628e-05
4.36747e-06
2.98894e-05
4.60267e-06
2.94939e-05
4.83689e-06
2.90754e-05
5.11553e-06
2.86259e-05
5.45057e-06
2.81508e-05
5.71118e-06
2.76536e-05
6.08779e-06
2.71232e-05
6.50168e-06
2.65535e-05
6.87586e-06
2.59508e-05
7.25653e-06
2.5316e-05
7.7213e-06
2.46374e-05
8.2635e-06
2.39084e-05
8.84202e-06
2.31241e-05
9.5061e-06
2.22789e-05
1.02808e-05
2.13607e-05
1.12605e-05
1.28248e-05
2.03441e-05
3.61387e-05
-8.80543e-08
3.61411e-05
5.92701e-08
3.60856e-05
1.02714e-06
3.60134e-05
1.51728e-06
3.59256e-05
1.7492e-06
3.58244e-05
1.86332e-06
3.57081e-05
1.97683e-06
3.55754e-05
2.09659e-06
3.54298e-05
2.23304e-06
3.5269e-05
2.376e-06
3.50938e-05
2.44332e-06
3.49104e-05
2.53538e-06
3.47152e-05
2.64944e-06
3.45038e-05
2.80632e-06
3.42784e-05
3.01051e-06
3.40415e-05
3.20108e-06
3.37938e-05
3.34925e-06
3.35322e-05
3.47354e-06
3.32536e-05
3.66246e-06
3.29574e-05
3.86001e-06
3.26414e-05
4.06345e-06
3.23078e-05
4.25774e-06
3.19589e-05
4.49079e-06
3.15941e-05
4.73117e-06
3.12107e-05
4.98618e-06
3.08048e-05
5.24444e-06
3.03775e-05
5.54288e-06
2.99187e-05
5.91079e-06
2.94312e-05
6.19986e-06
2.89206e-05
6.59566e-06
2.83772e-05
7.04705e-06
2.77927e-05
7.46208e-06
2.71728e-05
7.87657e-06
2.65208e-05
8.37219e-06
2.58248e-05
8.96032e-06
2.50769e-05
9.59065e-06
2.4272e-05
1.03104e-05
2.34043e-05
1.11518e-05
2.24624e-05
1.22041e-05
1.38528e-05
2.14243e-05
3.76326e-05
-2.34241e-08
3.75623e-05
1.02228e-07
3.75067e-05
1.08062e-06
3.74353e-05
1.58888e-06
3.73477e-05
1.83807e-06
3.7246e-05
1.96483e-06
3.71293e-05
2.09297e-06
3.69957e-05
2.23184e-06
3.68498e-05
2.3786e-06
3.66891e-05
2.53579e-06
3.65119e-05
2.62222e-06
3.63245e-05
2.72299e-06
3.61252e-05
2.84709e-06
3.59095e-05
3.02461e-06
3.56794e-05
3.24042e-06
3.54381e-05
3.44296e-06
3.51856e-05
3.6018e-06
3.49182e-05
3.74059e-06
3.46335e-05
3.94761e-06
3.43312e-05
4.16246e-06
3.40081e-05
4.38788e-06
3.36666e-05
4.59932e-06
3.33092e-05
4.84977e-06
3.2935e-05
5.10463e-06
3.25418e-05
5.37889e-06
3.21255e-05
5.66303e-06
3.16892e-05
5.97914e-06
3.12218e-05
6.37867e-06
3.07226e-05
6.70034e-06
3.01987e-05
7.11703e-06
2.96425e-05
7.60489e-06
2.90439e-05
8.06171e-06
2.84076e-05
8.51297e-06
2.77385e-05
9.04031e-06
2.70254e-05
9.67317e-06
2.62588e-05
1.0359e-05
2.54335e-05
1.11336e-05
2.45439e-05
1.2045e-05
2.35787e-05
1.31711e-05
1.49016e-05
2.25181e-05
3.90554e-05
3.28922e-08
3.8997e-05
1.47545e-07
3.89412e-05
1.13426e-06
3.88699e-05
1.66039e-06
3.87821e-05
1.9269e-06
3.86796e-05
2.06734e-06
3.85623e-05
2.20987e-06
3.84282e-05
2.36767e-06
3.82822e-05
2.52447e-06
3.81217e-05
2.69499e-06
3.79429e-05
2.80248e-06
3.77516e-05
2.9149e-06
3.75481e-05
3.04907e-06
3.73281e-05
3.24784e-06
3.70935e-05
3.47424e-06
3.68481e-05
3.68923e-06
3.65907e-05
3.85914e-06
3.63176e-05
4.01362e-06
3.60267e-05
4.23877e-06
3.5718e-05
4.47179e-06
3.53881e-05
4.71869e-06
3.50388e-05
4.9489e-06
3.4673e-05
5.2169e-06
3.42896e-05
5.48757e-06
3.38866e-05
5.78178e-06
3.34601e-05
6.09177e-06
3.30144e-05
6.4253e-06
3.25386e-05
6.85383e-06
3.20283e-05
7.21205e-06
3.14913e-05
7.65212e-06
3.09224e-05
8.17534e-06
3.03106e-05
8.67395e-06
2.96588e-05
9.16525e-06
2.89725e-05
9.72549e-06
2.82421e-05
1.0404e-05
2.7457e-05
1.11453e-05
2.66116e-05
1.19778e-05
2.57008e-05
1.29588e-05
2.47126e-05
1.41613e-05
1.59747e-05
2.36291e-05
4.05133e-05
9.12276e-08
4.0448e-05
1.94294e-07
4.03921e-05
1.18798e-06
4.03205e-05
1.73214e-06
4.0232e-05
2.01621e-06
4.01283e-05
2.17153e-06
4.001e-05
2.3282e-06
3.98758e-05
2.50362e-06
3.97299e-05
2.67055e-06
3.95695e-05
2.85371e-06
3.93896e-05
2.98339e-06
3.91944e-05
3.11133e-06
3.89865e-05
3.25593e-06
3.87624e-05
3.47523e-06
3.85238e-05
3.71184e-06
3.82743e-05
3.93984e-06
3.80119e-05
4.12171e-06
3.77333e-05
4.29223e-06
3.74361e-05
4.53639e-06
3.71209e-05
4.78837e-06
3.67839e-05
5.05577e-06
3.64272e-05
5.30678e-06
3.60533e-05
5.59166e-06
3.56605e-05
5.88002e-06
3.52477e-05
6.19506e-06
3.48113e-05
6.52999e-06
3.43558e-05
6.88226e-06
3.38713e-05
7.33657e-06
3.33505e-05
7.73529e-06
3.28006e-05
8.20082e-06
3.22191e-05
8.75945e-06
3.15949e-05
9.29814e-06
3.09285e-05
9.83353e-06
3.02252e-05
1.04278e-05
2.94769e-05
1.11543e-05
2.86732e-05
1.19495e-05
2.78081e-05
1.28427e-05
2.68771e-05
1.38935e-05
2.58665e-05
1.51738e-05
1.70753e-05
2.47593e-05
4.20086e-05
1.35321e-07
4.19183e-05
2.41265e-07
4.18629e-05
1.24139e-06
4.17909e-05
1.80403e-06
4.1701e-05
2.1064e-06
4.15957e-05
2.27732e-06
4.14764e-05
2.44741e-06
4.13422e-05
2.63923e-06
4.1196e-05
2.8172e-06
4.10355e-05
3.01235e-06
4.08549e-05
3.16441e-06
4.06559e-05
3.31126e-06
4.04434e-05
3.46785e-06
4.02156e-05
3.70588e-06
3.99734e-05
3.95307e-06
3.97199e-05
4.19378e-06
3.94523e-05
4.38978e-06
3.91682e-05
4.57612e-06
3.88651e-05
4.83927e-06
3.85428e-05
5.11232e-06
3.8199e-05
5.39904e-06
3.78351e-05
5.6718e-06
3.74535e-05
5.97365e-06
3.70514e-05
6.28167e-06
3.66285e-05
6.61826e-06
3.61822e-05
6.97734e-06
3.57165e-05
7.34954e-06
3.52228e-05
7.8278e-06
3.46916e-05
8.26727e-06
3.41293e-05
8.76291e-06
3.35354e-05
9.35439e-06
3.28992e-05
9.9341e-06
3.22191e-05
1.0514e-05
3.14988e-05
1.11471e-05
3.07323e-05
1.19218e-05
2.991e-05
1.27713e-05
2.90257e-05
1.37271e-05
2.80751e-05
1.48451e-05
2.70426e-05
1.62079e-05
1.81975e-05
2.59115e-05
4.34175e-05
1.77418e-07
4.34116e-05
2.87375e-07
4.33575e-05
1.29418e-06
4.32853e-05
1.87624e-06
4.31939e-05
2.19913e-06
4.30863e-05
2.38568e-06
4.29657e-05
2.56781e-06
4.28312e-05
2.7744e-06
4.26844e-05
2.96467e-06
4.25237e-05
3.17142e-06
4.23424e-05
3.34638e-06
4.21399e-05
3.51485e-06
4.19228e-05
3.68496e-06
4.16917e-05
3.93885e-06
4.14464e-05
4.19803e-06
4.11888e-05
4.45131e-06
4.09159e-05
4.66306e-06
4.06263e-05
4.86548e-06
4.03173e-05
5.14811e-06
3.9988e-05
5.44331e-06
3.96373e-05
5.74889e-06
3.92665e-05
6.04411e-06
3.88774e-05
6.36201e-06
3.84663e-05
6.69376e-06
3.80331e-05
7.05142e-06
3.7577e-05
7.43455e-06
3.71006e-05
7.82791e-06
3.65967e-05
8.32873e-06
3.60552e-05
8.80887e-06
3.54808e-05
9.33771e-06
3.48746e-05
9.96125e-06
3.42266e-05
1.05816e-05
3.35332e-05
1.12072e-05
3.27965e-05
1.18835e-05
3.20118e-05
1.27067e-05
3.1171e-05
1.36131e-05
3.02674e-05
1.46288e-05
2.92978e-05
1.58183e-05
2.82439e-05
1.72623e-05
1.93427e-05
2.7089e-05
4.49887e-05
2.18437e-07
4.49286e-05
3.31937e-07
4.48765e-05
1.34531e-06
4.48047e-05
1.94748e-06
4.47115e-05
2.29358e-06
4.46014e-05
2.49698e-06
4.44792e-05
2.69006e-06
4.43441e-05
2.91005e-06
4.41961e-05
3.11378e-06
4.40349e-05
3.33127e-06
4.3853e-05
3.52819e-06
4.36472e-05
3.72184e-06
4.34257e-05
3.90728e-06
4.31917e-05
4.17384e-06
4.29436e-05
4.44593e-06
4.26819e-05
4.71291e-06
4.24036e-05
4.94228e-06
4.21084e-05
5.16014e-06
4.17935e-05
5.46275e-06
4.14573e-05
5.78172e-06
4.11e-05
6.10471e-06
4.07224e-05
6.42378e-06
4.03259e-05
6.75767e-06
3.9906e-05
7.11443e-06
3.94629e-05
7.49533e-06
3.89966e-05
7.90116e-06
3.85088e-05
8.31855e-06
3.79941e-05
8.84017e-06
3.74425e-05
9.36134e-06
3.68565e-05
9.92453e-06
3.62381e-05
1.05811e-05
3.5578e-05
1.12409e-05
3.48712e-05
1.19151e-05
3.41184e-05
1.2636e-05
3.33158e-05
1.35109e-05
3.24567e-05
1.44723e-05
3.15342e-05
1.5551e-05
3.05454e-05
1.68107e-05
2.94705e-05
1.83374e-05
2.05148e-05
2.82921e-05
4.64697e-05
2.553e-07
4.64732e-05
3.74989e-07
4.64232e-05
1.39454e-06
4.63523e-05
2.01754e-06
4.62578e-05
2.38968e-06
4.6145e-05
2.61139e-06
4.6021e-05
2.81404e-06
4.58848e-05
3.04655e-06
4.57351e-05
3.26499e-06
4.55726e-05
3.49245e-06
4.53898e-05
3.71039e-06
4.51814e-05
3.93186e-06
4.49562e-05
4.13393e-06
4.47193e-05
4.41091e-06
4.44682e-05
4.69687e-06
4.42024e-05
4.97887e-06
4.39189e-05
5.22691e-06
4.36179e-05
5.4603e-06
4.32974e-05
5.78337e-06
4.29545e-05
6.12665e-06
4.25908e-05
6.46647e-06
4.22066e-05
6.81049e-06
4.18024e-05
7.16108e-06
4.13739e-05
7.54363e-06
4.09212e-05
7.94909e-06
4.04448e-05
8.37713e-06
3.99452e-05
8.8217e-06
3.94189e-05
9.3629e-06
3.88569e-05
9.92477e-06
3.82597e-05
1.05224e-05
3.76292e-05
1.12138e-05
3.69566e-05
1.19121e-05
3.62359e-05
1.26379e-05
3.54671e-05
1.34045e-05
3.46471e-05
1.43332e-05
3.37702e-05
1.53486e-05
3.28285e-05
1.64925e-05
3.18202e-05
1.78232e-05
3.07248e-05
1.94328e-05
2.17116e-05
2.95241e-05
4.81274e-05
2.90158e-07
4.80466e-05
4.17042e-07
4.79987e-05
1.44241e-06
4.79288e-05
2.08653e-06
4.78333e-05
2.4868e-06
4.77181e-05
2.72789e-06
4.75924e-05
2.93967e-06
4.74547e-05
3.18368e-06
4.7303e-05
3.4184e-06
4.71385e-05
3.65579e-06
4.69543e-05
3.89434e-06
4.67438e-05
4.14312e-06
4.65156e-05
4.36375e-06
4.62757e-05
4.65045e-06
4.60214e-05
4.95137e-06
4.57512e-05
5.2487e-06
4.54624e-05
5.5159e-06
4.51559e-05
5.76649e-06
4.48299e-05
6.10877e-06
4.44807e-05
6.47663e-06
4.4111e-05
6.83488e-06
4.37202e-05
7.20269e-06
4.33081e-05
7.57197e-06
4.28711e-05
7.98154e-06
4.24093e-05
8.41128e-06
4.19229e-05
8.86297e-06
4.14112e-05
9.33601e-06
4.08728e-05
9.89787e-06
4.02999e-05
1.04977e-05
3.96915e-05
1.1131e-05
3.90492e-05
1.18575e-05
3.83637e-05
1.25954e-05
3.76284e-05
1.33733e-05
3.68435e-05
1.41896e-05
3.6007e-05
1.51699e-05
3.51121e-05
1.62439e-05
3.41513e-05
1.74501e-05
3.31231e-05
1.88551e-05
3.20073e-05
2.05472e-05
2.29261e-05
3.07849e-05
4.96906e-05
3.10881e-07
4.96537e-05
4.58182e-07
4.96073e-05
1.48874e-06
4.95387e-05
2.15325e-06
4.9443e-05
2.58298e-06
4.93261e-05
2.84588e-06
4.91984e-05
3.06717e-06
4.90587e-05
3.32275e-06
4.89047e-05
3.57476e-06
4.87378e-05
3.82178e-06
4.85511e-05
4.07968e-06
4.83388e-05
4.35509e-06
4.81083e-05
4.59638e-06
4.78652e-05
4.89345e-06
4.76073e-05
5.20888e-06
4.73327e-05
5.52246e-06
4.70388e-05
5.81072e-06
4.67266e-05
6.07835e-06
4.63952e-05
6.4384e-06
4.60406e-05
6.83244e-06
4.56648e-05
7.20895e-06
4.52675e-05
7.60036e-06
4.48477e-05
7.9923e-06
4.4402e-05
8.42624e-06
4.39313e-05
8.88302e-06
4.34352e-05
9.35712e-06
4.29115e-05
9.86168e-06
4.23604e-05
1.04457e-05
4.17758e-05
1.10811e-05
4.11561e-05
1.1751e-05
4.05019e-05
1.25118e-05
3.98033e-05
1.32916e-05
3.90529e-05
1.41226e-05
3.8252e-05
1.49901e-05
3.73994e-05
1.60227e-05
3.64871e-05
1.71543e-05
3.55066e-05
1.84301e-05
3.44578e-05
1.99044e-05
3.33216e-05
2.16834e-05
2.41607e-05
3.20782e-05
5.12953e-05
3.30121e-07
5.12944e-05
4.99372e-07
5.12483e-05
1.53515e-06
5.11807e-05
2.219e-06
5.10863e-05
2.67821e-06
5.09684e-05
2.96602e-06
5.08382e-05
3.19715e-06
5.06964e-05
3.46473e-06
5.05397e-05
3.73369e-06
5.03693e-05
3.99114e-06
5.018e-05
4.26835e-06
4.9966e-05
4.56985e-06
4.97332e-05
4.83165e-06
4.94865e-05
5.1398e-06
4.92249e-05
5.47012e-06
4.8946e-05
5.8014e-06
4.86469e-05
6.1114e-06
4.83288e-05
6.39646e-06
4.79925e-05
6.77472e-06
4.76331e-05
7.19338e-06
4.72516e-05
7.58867e-06
4.6848e-05
8.00578e-06
4.642e-05
8.4211e-06
4.59659e-05
8.87959e-06
4.54858e-05
9.36577e-06
4.49797e-05
9.86093e-06
4.44448e-05
1.04001e-05
4.38809e-05
1.1007e-05
4.32838e-05
1.168e-05
4.26524e-05
1.23826e-05
4.19864e-05
1.31808e-05
4.12747e-05
1.40005e-05
4.0509e-05
1.48909e-05
3.96922e-05
1.58066e-05
3.88241e-05
1.68949e-05
3.78947e-05
1.80821e-05
3.68944e-05
1.94335e-05
3.58242e-05
2.09796e-05
3.46675e-05
2.284e-05
2.54233e-05
3.34038e-05
5.29431e-05
3.47989e-07
5.29712e-05
5.41503e-07
5.29246e-05
1.58304e-06
5.28577e-05
2.28515e-06
5.27657e-05
2.77075e-06
5.26479e-05
3.0865e-06
5.25153e-05
3.3298e-06
5.23707e-05
3.60869e-06
5.22105e-05
3.89498e-06
5.20363e-05
4.1647e-06
5.18437e-05
4.46079e-06
5.16275e-05
4.78658e-06
5.13925e-05
5.06876e-06
5.11423e-05
5.38944e-06
5.0877e-05
5.73548e-06
5.05942e-05
6.08448e-06
5.02899e-05
6.41688e-06
4.99657e-05
6.72157e-06
4.96241e-05
7.11692e-06
4.92601e-05
7.55728e-06
4.88733e-05