/*--------------------------------*- C++ -*----------------------------------*\
| =========                 |                                                 |
| \\      /  F ield         | OpenFOAM: The Open Source CFD Toolbox           |
|  \\    /   O peration     | Version:  2506                                  |
|   \\  /    A nd           | Website:  www.openfoam.com                      |
|    \\/     M anipulation  |                                                 |
\*---------------------------------------------------------------------------*/
FoamFile
{
    version     2.0;
    format      ascii;
    arch        "LSB;label=32;scalar=64";
    class       volVectorField;
    location    "6000";
    object      U;
}
// * * * * * * * * * * * * * * * * * * * * * * * * * * * * * * * * * * * * * //

dimensions      [0 1 -1 0 0 0 0];

internalField   nonuniform List<vector> 
72100
(
(0.48361 -3.63789e-05 0)
(0.487759 -9.67329e-06 0)
(0.484304 2.17162e-05 0)
(0.459292 2.36044e-05 0)
(0.4539 2.31597e-05 0)
(0.448888 2.22202e-05 0)
(0.444062 2.15145e-05 0)
(0.439381 2.12513e-05 0)
(0.434809 2.11585e-05 0)
(0.430215 2.1015e-05 0)
(0.42565 2.13766e-05 0)
(0.421127 2.15998e-05 0)
(0.416608 2.14923e-05 0)
(0.412255 2.13402e-05 0)
(0.407479 2.40936e-05 0)
(0.402295 2.66888e-05 0)
(0.396651 2.8617e-05 0)
(0.390807 2.7928e-05 0)
(0.385128 3.18796e-05 0)
(0.379749 3.23483e-05 0)
(0.37392 3.21792e-05 0)
(0.36721 4.15935e-05 0)
(0.360671 3.87453e-05 0)
(0.353253 4.32228e-05 0)
(0.345391 4.94631e-05 0)
(0.337236 4.54543e-05 0)
(0.328493 5.6369e-05 0)
(0.321331 4.91795e-05 0)
(0.310405 6.29198e-05 0)
(0.301309 5.57904e-05 0)
(0.289943 7.28182e-05 0)
(0.279694 6.31966e-05 0)
(0.266827 8.56765e-05 0)
(0.255244 7.41065e-05 0)
(0.240803 9.40358e-05 0)
(0.227179 8.91802e-05 0)
(0.211701 0.00010347 0)
(0.194956 0.000115768 0)
(0.178169 0.000118528 0)
(0.154716 0.000328172 0)
(1.47734 -0.000278427 0)
(1.40983 -8.08536e-05 0)
(1.40137 0.00016351 0)
(1.38634 0.000197323 0)
(1.37086 0.000192852 0)
(1.35663 0.000185147 0)
(1.34289 0.000180044 0)
(1.32955 0.000177418 0)
(1.31654 0.000177225 0)
(1.30352 0.00017595 0)
(1.29043 0.000178791 0)
(1.27746 0.000180464 0)
(1.26464 0.000179362 0)
(1.25222 0.000178799 0)
(1.23861 0.000203136 0)
(1.22358 0.000226015 0)
(1.20741 0.000241009 0)
(1.19106 0.000235297 0)
(1.17483 0.000232515 0)
(1.15904 0.000246172 0)
(1.14246 0.000268739 0)
(1.12356 0.000293552 0)
(1.10431 0.000311483 0)
(1.08328 0.000335022 0)
(1.06034 0.000370094 0)
(1.03686 0.000382039 0)
(1.01211 0.000399729 0)
(0.987489 0.000416488 0)
(0.960005 0.000447057 0)
(0.932768 0.000477523 0)
(0.900995 0.000521981 0)
(0.869899 0.000544727 0)
(0.834365 0.000602812 0)
(0.798481 0.00063841 0)
(0.758493 0.000690383 0)
(0.718228 0.000735249 0)
(0.673435 0.000807911 0)
(0.625801 0.000869917 0)
(0.575136 0.000977055 0)
(0.511536 0.00146129 0)
(2.2353 -0.000559335 0)
(2.35484 -0.000190283 0)
(2.34178 0.000433882 0)
(2.31876 0.000531061 0)
(2.29461 0.000520907 0)
(2.27212 0.000499181 0)
(2.25038 0.000486313 0)
(2.22941 0.000477872 0)
(2.20901 0.000478921 0)
(2.18845 0.000476095 0)
(2.16794 0.000483415 0)
(2.14725 0.000487788 0)
(2.12686 0.000484956 0)
(2.10709 0.000485082 0)
(2.08561 0.000550974 0)
(2.06154 0.000614603 0)
(2.03573 0.000652608 0)
(2.01003 0.000638018 0)
(1.98447 0.000629494 0)
(1.9585 0.000663228 0)
(1.93203 0.000727192 0)
(1.90223 0.000790165 0)
(1.87093 0.000844978 0)
(1.83695 0.000921126 0)
(1.80105 0.000992444 0)
(1.76322 0.00103574 0)
(1.72432 0.00107319 0)
(1.684 0.00113925 0)
(1.64038 0.00120855 0)
(1.59603 0.00130947 0)
(1.54548 0.00141626 0)
(1.49488 0.00149475 0)
(1.43856 0.00162784 0)
(1.38019 0.00174723 0)
(1.31669 0.0018568 0)
(1.25099 0.00201433 0)
(1.17864 0.0021949 0)
(1.10209 0.00239257 0)
(1.01997 0.00268528 0)
(0.919653 0.00355553 0)
(3.23039 -0.00100104 0)
(3.2718 -0.000313446 0)
(3.25593 0.000805828 0)
(3.22723 0.00100317 0)
(3.19618 0.000991385 0)
(3.16697 0.00095089 0)
(3.13869 0.000927156 0)
(3.11131 0.000908404 0)
(3.08465 0.000913601 0)
(3.05764 0.000911588 0)
(3.03068 0.000926066 0)
(3.00335 0.000935198 0)
(2.97628 0.000931325 0)
(2.94962 0.00093472 0)
(2.9211 0.00105914 0)
(2.88927 0.00118039 0)
(2.85485 0.0012505 0)
(2.82087 0.00122616 0)
(2.78674 0.00121812 0)
(2.7518 0.00127904 0)
(2.71556 0.00140183 0)
(2.6743 0.00152767 0)
(2.63447 0.00162643 0)
(2.58831 0.0017731 0)
(2.54026 0.00191303 0)
(2.49001 0.00199245 0)
(2.43701 0.00208144 0)
(2.38407 0.00220527 0)
(2.32433 0.00234665 0)
(2.26588 0.00253874 0)
(2.19693 0.00275159 0)
(2.13007 0.0028979 0)
(2.05367 0.00316316 0)
(1.97639 0.00338475 0)
(1.8907 0.00360862 0)
(1.80293 0.00389664 0)
(1.70653 0.00423544 0)
(1.60277 0.00463519 0)
(1.49236 0.0052108 0)
(1.35779 0.00664379 0)
(4.16556 -0.0014682 0)
(4.12592 -0.000440171 0)
(4.10949 0.00124591 0)
(4.07775 0.00158349 0)
(4.04199 0.00157991 0)
(4.00778 0.00152163 0)
(3.97453 0.0014845 0)
(3.94234 0.00145169 0)
(3.91093 0.00146533 0)
(3.87861 0.00147079 0)
(3.84616 0.00149726 0)
(3.81321 0.00151351 0)
(3.78057 0.00151118 0)
(3.74793 0.00152322 0)
(3.71295 0.00172142 0)
(3.6744 0.001916 0)
(3.63294 0.00202107 0)
(3.59176 0.00199162 0)
(3.54973 0.00199458 0)
(3.50748 0.00209256 0)
(3.46154 0.002289 0)
(3.41206 0.00247916 0)
(3.3618 0.00265497 0)
(3.30752 0.00287985 0)
(3.24676 0.00311031 0)
(3.18664 0.00323495 0)
(3.12204 0.00338538 0)
(3.05765 0.00359968 0)
(2.98525 0.00382089 0)
(2.91291 0.00414851 0)
(2.82952 0.00447829 0)
(2.74681 0.00473495 0)
(2.65391 0.00514592 0)
(2.55922 0.00552783 0)
(2.45372 0.00589824 0)
(2.34766 0.00635488 0)
(2.22889 0.00691852 0)
(2.10397 0.00753724 0)
(1.96781 0.00850594 0)
(1.80371 0.0105965 0)
(4.80617 -0.00180905 0)
(4.89411 -0.000584088 0)
(4.87894 0.00170076 0)
(4.84667 0.00222705 0)
(4.80857 0.00225584 0)
(4.77118 0.00218489 0)
(4.73449 0.00213449 0)
(4.69883 0.00208689 0)
(4.66384 0.00211453 0)
(4.62757 0.00213604 0)
(4.59094 0.00217938 0)
(4.55335 0.00220723 0)
(4.51606 0.00221184 0)
(4.47832 0.00224293 0)
(4.43804 0.00251871 0)
(4.39371 0.00280162 0)
(4.34636 0.00294485 0)
(4.29925 0.0029213 0)
(4.25028 0.0029494 0)
(4.2006 0.0031012 0)
(4.14803 0.00336851 0)
(4.09076 0.00363601 0)
(4.03172 0.00390431 0)
(3.96733 0.00423424 0)
(3.90119 0.00454496 0)
(3.8305 0.00473342 0)
(3.7582 0.0049539 0)
(3.68206 0.00529079 0)
(3.59949 0.00561581 0)
(3.51466 0.00610637 0)
(3.41938 0.00657765 0)
(3.32302 0.00696707 0)
(3.21743 0.00754028 0)
(3.10733 0.00812244 0)
(2.98821 0.008652 0)
(2.86241 0.00935178 0)
(2.7269 0.0101583 0)
(2.58153 0.0110945 0)
(2.42526 0.0124984 0)
(2.23961 0.0152941 0)
(5.56593 -0.00221945 0)
(5.5683 -0.000732414 0)
(5.55522 0.00214484 0)
(5.52404 0.00289916 0)
(5.48556 0.00298316 0)
(5.44681 0.00291247 0)
(5.40821 0.00285419 0)
(5.37033 0.00279567 0)
(5.33263 0.00284228 0)
(5.29341 0.00288926 0)
(5.25371 0.00295516 0)
(5.2127 0.00300008 0)
(5.17182 0.00301677 0)
(5.12974 0.0030813 0)
(5.08496 0.00343962 0)
(5.03615 0.00381502 0)
(4.9842 0.0040036 0)
(4.93189 0.00400257 0)
(4.87714 0.00406906 0)
(4.82118 0.00428421 0)
(4.76197 0.00463049 0)
(4.69976 0.0049721 0)
(4.63299 0.00535049 0)
(4.56208 0.00578807 0)
(4.48657 0.00620545 0)
(4.41076 0.00645885 0)
(4.32761 0.00678404 0)
(4.24573 0.00724588 0)
(4.15231 0.00771047 0)
(4.05976 0.00837567 0)
(3.95253 0.00901773 0)
(3.8472 0.0095509 0)
(3.7282 0.0103267 0)
(3.60901 0.011115 0)
(3.47454 0.0118777 0)
(3.33751 0.0128011 0)
(3.18676 0.0139057 0)
(3.026 0.0151857 0)
(2.85248 0.0170927 0)
(2.64655 0.0207622 0)
(6.21802 -0.0025487 0)
(6.14888 -0.00088073 0)
(6.13776 0.00255716 0)
(6.10856 0.00357282 0)
(6.07115 0.00373138 0)
(6.03235 0.00367991 0)
(5.99301 0.00362229 0)
(5.95389 0.00356356 0)
(5.91432 0.00363693 0)
(5.8731 0.00371461 0)
(5.83127 0.00380901 0)
(5.78769 0.00387831 0)
(5.74399 0.00391713 0)
(5.69857 0.00402868 0)
(5.65022 0.00447211 0)
(5.59779 0.00494643 0)
(5.54246 0.00518162 0)
(5.4861 0.00522406 0)
(5.42633 0.00534371 0)
(5.36517 0.00563413 0)
(5.30083 0.00605335 0)
(5.23344 0.00648387 0)
(5.16265 0.00697173 0)
(5.08503 0.00753742 0)
(5.00523 0.00805372 0)
(4.92214 0.00839393 0)
(4.83579 0.00881594 0)
(4.7444 0.00943654 0)
(4.64673 0.01004 0)
(4.54362 0.0109273 0)
(4.43073 0.0117333 0)
(4.31441 0.012449 0)
(4.18949 0.0134082 0)
(4.05779 0.0144696 0)
(3.91524 0.0154692 0)
(3.76487 0.0166832 0)
(3.60295 0.0181122 0)
(3.43027 0.0197756 0)
(3.24247 0.0222311 0)
(3.02439 0.0267644 0)
(6.64238 -0.00272791 0)
(6.64858 -0.00100735 0)
(6.63877 0.00293407 0)
(6.6118 0.00422507 0)
(6.57627 0.0044778 0)
(6.53833 0.00446563 0)
(6.49914 0.00442029 0)
(6.45955 0.00437466 0)
(6.4187 0.00448432 0)
(6.37607 0.0045973 0)
(6.33288 0.0047215 0)
(6.28763 0.00482779 0)
(6.24167 0.00489517 0)
(6.19356 0.0050668 0)
(6.14253 0.00559666 0)
(6.08744 0.00616606 0)
(6.02956 0.00645832 0)
(5.96994 0.00656713 0)
(5.9064 0.00675049 0)
(5.84099 0.00712221 0)
(5.77247 0.00761325 0)
(5.70126 0.00813025 0)
(5.62638 0.00874181 0)
(5.5464 0.00943278 0)
(5.45958 0.0100708 0)
(5.37288 0.0105054 0)
(5.27873 0.0110635 0)
(5.18416 0.0118315 0)
(5.07846 0.0126143 0)
(4.97162 0.0137205 0)
(4.85007 0.0147258 0)
(4.7292 0.0156145 0)
(4.59489 0.0168087 0)
(4.45858 0.0181232 0)
(4.30649 0.0194207 0)
(4.14897 0.020912 0)
(3.9779 0.0226916 0)
(3.79423 0.0248022 0)
(3.59625 0.0278203 0)
(3.36608 0.0333498 0)
(7.01793 -0.00284339 0)
(7.07635 -0.00109766 0)
(7.06705 0.00328539 0)
(7.04228 0.00485181 0)
(7.00898 0.00521055 0)
(6.97232 0.00525814 0)
(6.93386 0.00523668 0)
(6.8943 0.00522124 0)
(6.85276 0.0053781 0)
(6.80922 0.00552913 0)
(6.7651 0.0056835 0)
(6.71878 0.00584097 0)
(6.67103 0.00594982 0)
(6.621 0.00618507 0)
(6.56798 0.00680707 0)
(6.51086 0.00747253 0)
(6.45117 0.00782445 0)
(6.38925 0.00801815 0)
(6.32272 0.00828117 0)
(6.25409 0.00873983 0)
(6.18247 0.00929727 0)
(6.10808 0.00991275 0)
(6.03024 0.010645 0)
(5.9471 0.0114849 0)
(5.85887 0.0122312 0)
(5.76661 0.0127841 0)
(5.6709 0.0134729 0)
(5.56911 0.0144162 0)
(5.46146 0.0153606 0)
(5.34762 0.0167316 0)
(5.22312 0.017928 0)
(5.09489 0.0190207 0)
(4.95755 0.0204288 0)
(4.81311 0.0220555 0)
(4.65672 0.0236544 0)
(4.49047 0.0254807 0)
(4.31254 0.0276413 0)
(4.12133 0.0302111 0)
(3.91448 0.0338275 0)
(3.67812 0.040307 0)
(7.45354 -0.00289794 0)
(7.44638 -0.00114301 0)
(7.43697 0.00362004 0)
(7.41411 0.00544547 0)
(7.38297 0.00592332 0)
(7.34779 0.00604485 0)
(7.31046 0.00605945 0)
(7.27127 0.00608879 0)
(7.22953 0.00630714 0)
(7.18541 0.00650431 0)
(7.14062 0.00668263 0)
(7.09378 0.00690484 0)
(7.04469 0.00706459 0)
(6.99324 0.00736842 0)
(6.93876 0.00808774 0)
(6.88025 0.00884392 0)
(6.81922 0.00926301 0)
(6.75558 0.00955768 0)
(6.6871 0.00991156 0)
(6.61605 0.0104611 0)
(6.54196 0.0110896 0)
(6.46523 0.0118006 0)
(6.38493 0.0126566 0)
(6.29951 0.0136538 0)
(6.20893 0.014523 0)
(6.11438 0.0152038 0)
(6.01278 0.0160689 0)
(5.90905 0.0171704 0)
(5.79671 0.0182994 0)
(5.68047 0.0199292 0)
(5.55102 0.0213506 0)
(5.41962 0.0226373 0)
(5.27669 0.024302 0)
(5.12922 0.0262247 0)
(4.967 0.0281787 0)
(4.79725 0.0303211 0)
(4.61306 0.0328896 0)
(4.41559 0.0359547 0)
(4.20221 0.0401855 0)
(3.95875 0.0477378 0)
(7.73891 -0.0028686 0)
(7.76744 -0.00113781 0)
(7.75742 0.00394214 0)
(7.73607 0.0060069 0)
(7.70686 0.00661678 0)
(7.67327 0.00682111 0)
(7.63727 0.00688698 0)
(7.59865 0.00697646 0)
(7.55705 0.0072669 0)
(7.51266 0.0075196 0)
(7.46734 0.00771432 0)
(7.42028 0.00801498 0)
(7.37032 0.00823876 0)
(7.31792 0.00861069 0)
(7.26244 0.00943026 0)
(7.20296 0.0102791 0)
(7.14095 0.0107728 0)
(7.07616 0.0111689 0)
(7.00647 0.0116321 0)
(6.93369 0.0122801 0)
(6.85786 0.0129808 0)
(6.77914 0.0137967 0)
(6.6969 0.0147746 0)
(6.60986 0.0159283 0)
(6.51755 0.0169388 0)
(6.4209 0.0177572 0)
(6.31858 0.0187891 0)
(6.20976 0.020085 0)
(6.09519 0.0213837 0)
(5.97559 0.0232958 0)
(5.84378 0.0249519 0)
(5.7084 0.0264498 0)
(5.56302 0.0283592 0)
(5.41137 0.0306052 0)
(5.24678 0.032913 0)
(5.07139 0.0354427 0)
(4.8838 0.0384257 0)
(4.68028 0.0420337 0)
(4.46235 0.0468793 0)
(4.21563 0.0554136 0)
(8.07375 -0.00274573 0)
(8.04868 -0.00108386 0)
(8.03786 0.00427016 0)
(8.01766 0.00654746 0)
(7.99004 0.00729489 0)
(7.95805 0.00758232 0)
(7.92342 0.00771294 0)
(7.88552 0.00787253 0)
(7.84434 0.00824812 0)
(7.79996 0.00857205 0)
(7.75418 0.0087768 0)
(7.70711 0.00916204 0)
(7.65677 0.00945678 0)
(7.60375 0.00990386 0)
(7.54755 0.0108298 0)
(7.48751 0.011768 0)
(7.42482 0.0123418 0)
(7.3592 0.012843 0)
(7.28892 0.0134279 0)
(7.21501 0.0141773 0)
(7.13784 0.0149659 0)
(7.05757 0.0158883 0)
(6.97375 0.0169858 0)
(6.88542 0.0182992 0)
(6.79203 0.0194528 0)
(6.69373 0.0204347 0)
(6.5894 0.0216645 0)
(6.47815 0.0231513 0)
(6.3614 0.024615 0)
(6.2394 0.0268095 0)
(6.106 0.0287239 0)
(5.96734 0.0304451 0)
(5.81948 0.0326111 0)
(5.66504 0.0351851 0)
(5.49745 0.0378875 0)
(5.31943 0.0408036 0)
(5.12764 0.0442487 0)
(4.92195 0.0483464 0)
(4.69909 0.053865 0)
(4.44923 0.0634473 0)
(8.29602 -0.00259759 0)
(8.29731 -0.000982948 0)
(8.28567 0.00460196 0)
(8.26621 0.0070664 0)
(8.23986 0.00795388 0)
(8.20943 0.00832396 0)
(8.17618 0.00853351 0)
(8.13911 0.0087763 0)
(8.09854 0.00924704 0)
(8.05444 0.00965608 0)
(8.00831 0.00986952 0)
(7.96131 0.0103349 0)
(7.911 0.0107128 0)
(7.85761 0.0112448 0)
(7.80094 0.0122736 0)
(7.74063 0.0133023 0)
(7.67746 0.0139687 0)
(7.6113 0.0145676 0)
(7.54089 0.0152809 0)
(7.46622 0.0161478 0)
(7.3881 0.0170352 0)
(7.30664 0.0180643 0)
(7.22149 0.0192905 0)
(7.13214 0.0207469 0)
(7.03798 0.02206 0)
(6.93854 0.0232184 0)
(6.83276 0.02466 0)
(6.71958 0.0263623 0)
(6.60115 0.027974 0)
(6.47711 0.0304558 0)
(6.3415 0.0326673 0)
(6.20145 0.0346161 0)
(6.0506 0.0370496 0)
(5.89494 0.039942 0)
(5.72512 0.0430503 0)
(5.54497 0.046376 0)
(5.35045 0.0502979 0)
(5.14083 0.0549712 0)
(4.9159 0.061128 0)
(4.66372 0.0717426 0)
(8.49663 -0.00240751 0)
(8.51768 -0.000841875 0)
(8.5054 0.00494663 0)
(8.48645 0.00757976 0)
(8.46118 0.00860309 0)
(8.43225 0.0090513 0)
(8.40019 0.00935559 0)
(8.36399 0.00968959 0)
(8.32416 0.0102599 0)
(8.28059 0.0107667 0)
(8.2342 0.010994 0)
(8.18735 0.0115371 0)
(8.13734 0.0120059 0)
(8.08379 0.0126307 0)
(8.02683 0.0137645 0)
(7.96646 0.0148859 0)
(7.90299 0.0156523 0)
(7.83655 0.0163393 0)
(7.76624 0.017197 0)
(7.69115 0.0181897 0)
(7.61238 0.0191876 0)
(7.52996 0.0203322 0)
(7.44381 0.0216891 0)
(7.35359 0.0232834 0)
(7.25888 0.0247653 0)
(7.15868 0.0261075 0)
(7.05187 0.0277874 0)
(6.93749 0.0297113 0)
(6.81708 0.0314887 0)
(6.69198 0.0342227 0)
(6.55642 0.0367365 0)
(6.41385 0.0389583 0)
(6.26194 0.041636 0)
(6.1038 0.0448758 0)
(5.93323 0.0483894 0)
(5.75046 0.0521721 0)
(5.55421 0.0565895 0)
(5.34213 0.0618332 0)
(5.1149 0.0686575 0)
(4.86214 0.0802313 0)
(8.73437 -0.00209819 0)
(8.71559 -0.000667621 0)
(8.70296 0.00530141 0)
(8.68439 0.00808905 0)
(8.66012 0.00924129 0)
(8.63248 0.00976594 0)
(8.60144 0.0101721 0)
(8.5661 0.010603 0)
(8.52712 0.01128 0)
(8.48428 0.0118993 0)
(8.43784 0.0121528 0)
(8.39112 0.0127599 0)
(8.34155 0.0133232 0)
(8.28802 0.0140584 0)
(8.23091 0.0152982 0)
(8.17058 0.0165114 0)
(8.10702 0.0173842 0)
(8.04052 0.0181566 0)
(7.9704 0.0191646 0)
(7.89516 0.0202912 0)
(7.81597 0.0214207 0)
(7.73277 0.0226792 0)
(7.64591 0.024176 0)
(7.55492 0.0259038 0)
(7.45981 0.0275472 0)
(7.35904 0.0290962 0)
(7.25165 0.0310103 0)
(7.13662 0.0331926 0)
(7.01462 0.0351327 0)
(6.88873 0.0381045 0)
(6.75316 0.0409407 0)
(6.609 0.0434719 0)
(6.45531 0.0464084 0)
(6.29592 0.0499848 0)
(6.12367 0.053949 0)
(5.94006 0.0581722 0)
(5.74198 0.0631169 0)
(5.52906 0.068906 0)
(5.29963 0.0764381 0)
(5.04594 0.0890298 0)
(8.89971 -0.0018207 0)
(8.89414 -0.000467081 0)
(8.88146 0.00566207 0)
(8.86325 0.00859259 0)
(8.8399 0.00986573 0)
(8.81331 0.0104691 0)
(8.7832 0.0109851 0)
(8.74868 0.011521 0)
(8.71057 0.0123041 0)
(8.66858 0.0130461 0)
(8.62236 0.0133442 0)
(8.57572 0.0140018 0)
(8.52658 0.0146668 0)
(8.47322 0.0155236 0)
(8.41612 0.0168684 0)
(8.35586 0.0181748 0)
(8.29237 0.0191606 0)
(8.226 0.0200156 0)
(8.15607 0.0211739 0)
(8.0809 0.0224499 0)
(8.00155 0.0237269 0)
(7.91772 0.0251004 0)
(7.83036 0.0267475 0)
(7.73877 0.0285988 0)
(7.6433 0.0304133 0)
(7.54211 0.0321738 0)
(7.43445 0.0343221 0)
(7.31934 0.0367904 0)
(7.19619 0.0388999 0)
(7.06964 0.0420959 0)
(6.93389 0.0452719 0)
(6.78907 0.0481435 0)
(6.63436 0.0513259 0)
(6.47346 0.0552559 0)
(6.30009 0.0596724 0)
(6.11571 0.0643549 0)
(5.91648 0.0698391 0)
(5.70208 0.076246 0)
(5.47177 0.0844606 0)
(5.21752 0.0980384 0)
(9.0601 -0.00149599 0)
(9.05602 -0.000244191 0)
(9.04351 0.0060251 0)
(9.02576 0.00909391 0)
(9.00334 0.0104837 0)
(8.97755 0.0111691 0)
(8.94832 0.0117981 0)
(8.91452 0.012446 0)
(8.87721 0.0133307 0)
(8.83613 0.0142007 0)
(8.79043 0.0145659 0)
(8.74383 0.0152689 0)
(8.69506 0.0160369 0)
(8.64196 0.0170239 0)
(8.58497 0.0184775 0)
(8.52479 0.0198797 0)
(8.46153 0.0209771 0)
(8.39542 0.0219167 0)
(8.32562 0.0232332 0)
(8.2507 0.0246621 0)
(8.17141 0.0261019 0)
(8.08711 0.0275996 0)
(7.99945 0.0294004 0)
(7.90742 0.0313758 0)
(7.81168 0.0333654 0)
(7.71013 0.0353388 0)
(7.60244 0.0377214 0)
(7.48771 0.0404917 0)
(7.36386 0.0427926 0)
(7.2368 0.0461958 0)
(7.10097 0.0497295 0)
(6.95588 0.0529649 0)
(6.80005 0.0564252 0)
(6.6382 0.0606898 0)
(6.46493 0.0655188 0)
(6.27935 0.0707206 0)
(6.07964 0.0767308 0)
(5.86471 0.083748 0)
(5.63292 0.0927227 0)
(5.37856 0.107236 0)
(9.21936 -0.00111498 0)
(9.20371 -2.79848e-06 0)
(9.19146 0.00638871 0)
(9.17427 0.00959339 0)
(9.15277 0.0111001 0)
(9.12758 0.0118692 0)
(9.09921 0.0126122 0)
(9.06607 0.0133809 0)
(9.02942 0.0143603 0)
(8.9893 0.015357 0)
(8.9444 0.0158166 0)
(8.89782 0.0165652 0)
(8.84933 0.0174346 0)
(8.79652 0.0185589 0)
(8.73971 0.0201269 0)
(8.67965 0.0216263 0)
(8.61674 0.0228306 0)
(8.55095 0.0238636 0)
(8.48124 0.0253443 0)
(8.40666 0.0269258 0)
(8.3276 0.028544 0)
(8.24307 0.0301753 0)
(8.15528 0.0321318 0)
(8.06297 0.0342361 0)
(7.96706 0.0364057 0)
(7.86523 0.0385968 0)
(7.7576 0.0412032 0)
(7.64361 0.0442823 0)
(7.51952 0.0468077 0)
(7.392 0.0504076 0)
(7.25617 0.0543154 0)
(7.1111 0.0579266 0)
(6.95449 0.0616953 0)
(6.79187 0.066287 0)
(6.61834 0.0715849 0)
(6.43244 0.0772973 0)
(6.23231 0.083855 0)
(6.01707 0.0915365 0)
(5.78469 0.101215 0)
(5.53084 0.116537 0)
(9.32623 -0.000825449 0)
(9.33961 0.000258664 0)
(9.32759 0.00674772 0)
(9.31095 0.0100832 0)
(9.29032 0.0117094 0)
(9.26564 0.0125664 0)
(9.23807 0.0134246 0)
(9.2056 0.0143279 0)
(9.16952 0.0153945 0)
(9.13042 0.0165111 0)
(9.08646 0.0170869 0)
(9.03998 0.0178906 0)
(8.99171 0.018861 0)
(8.93918 0.0201302 0)
(8.88256 0.021806 0)
(8.82274 0.0234091 0)
(8.76026 0.02472 0)
(8.69478 0.0258559 0)
(8.62516 0.0274965 0)
(8.55093 0.0292408 0)
(8.4722 0.0310397 0)
(8.3877 0.0328178 0)
(8.29992 0.0349381 0)
(8.2075 0.0371666 0)
(8.11151 0.0395337 0)
(8.0095 0.0419405 0)
(7.90189 0.044756 0)
(7.78883 0.0481488 0)
(7.66497 0.0509331 0)
(7.53704 0.0547343 0)
(7.40129 0.0590069 0)
(7.25643 0.0630196 0)
(7.09945 0.0671197 0)
(6.93625 0.0720367 0)
(6.76273 0.0778124 0)
(6.57682 0.0840278 0)
(6.37649 0.0911802 0)
(6.16115 0.0995027 0)
(5.92843 0.10995 0)
(5.67475 0.126167 0)
(9.4889 -0.000334259 0)
(9.46531 0.00053682 0)
(9.45346 0.00710788 0)
(9.43734 0.0105715 0)
(9.41748 0.0123217 0)
(9.39325 0.0132683 0)
(9.36629 0.0142364 0)
(9.33449 0.0152795 0)
(9.29902 0.0164297 0)
(9.26101 0.017662 0)
(9.21808 0.0183786 0)
(9.17182 0.0192494 0)
(9.12368 0.0203065 0)
(9.07147 0.0217385 0)
(9.01506 0.0235214 0)
(8.95559 0.0252301 0)
(8.89355 0.0266381 0)
(8.8284 0.0278979 0)
(8.75892 0.029702 0)
(8.685 0.031597 0)
(8.60667 0.0335935 0)
(8.52232 0.0355281 0)
(8.43469 0.0378109 0)
(8.3423 0.0401802 0)
(8.24626 0.0427308 0)
(8.14426 0.0453805 0)
(8.03664 0.0483814 0)
(7.92452 0.0520835 0)
(7.8013 0.055168 0)
(7.67308 0.059176 0)
(7.53748 0.0638176 0)
(7.39299 0.0682343 0)
(7.23606 0.072698 0)
(7.0725 0.0779433 0)
(6.89911 0.084178 0)
(6.71341 0.0909516 0)
(6.51309 0.098659 0)
(6.29778 0.107716 0)
(6.06514 0.118903 0)
(5.8117 0.135985 0)
(9.5993 2.86793e-05 0)
(9.58229 0.000832902 0)
(9.5706 0.00746885 0)
(9.55491 0.0110576 0)
(9.53561 0.0129299 0)
(9.51182 0.0139733 0)
(9.48528 0.0150492 0)
(9.45419 0.0162372 0)
(9.41945 0.0174681 0)
(9.38251 0.0188084 0)
(9.34061 0.0196827 0)
(9.29476 0.0206379 0)
(9.24666 0.0217819 0)
(9.19482 0.0233858 0)
(9.13862 0.0252664 0)
(9.07964 0.0270831 0)
(9.01807 0.0285913 0)
(8.95323 0.0299872 0)
(8.88399 0.0319482 0)
(8.81035 0.034006 0)
(8.73243 0.0361982 0)
(8.64832 0.038299 0)
(8.56092 0.0407514 0)
(8.46868 0.0432699 0)
(8.37261 0.0460107 0)
(8.27078 0.0489077 0)
(8.16318 0.0520839 0)
(8.05188 0.0560798 0)
(7.92957 0.0594949 0)
(7.80128 0.0637357 0)
(7.66588 0.0687259 0)
(7.52189 0.073563 0)
(7.36546 0.0784125 0)
(7.20178 0.0840014 0)
(7.02848 0.0906952 0)
(6.8431 0.0980404 0)
(6.64296 0.106332 0)
(6.42793 0.116094 0)
(6.19575 0.128077 0)
(5.94266 0.146007 0)
(9.71134 0.000411656 0)
(9.69147 0.00114253 0)
(9.68001 0.00783125 0)
(9.66473 0.0115447 0)
(9.64575 0.0135418 0)
(9.62236 0.0146893 0)
(9.59609 0.0158716 0)
(9.56574 0.0171969 0)
(9.53183 0.0185077 0)
(9.49586 0.0199506 0)
(9.45502 0.020994 0)
(9.40972 0.0220597 0)
(9.36157 0.0232915 0)
(9.31015 0.0250679 0)
(9.25426 0.0270405 0)
(9.19589 0.0289707 0)
(9.13477 0.0305829 0)
(9.07024 0.0321216 0)
(9.00137 0.0342476 0)
(8.92796 0.0364707 0)
(8.85039 0.0388534 0)
(8.76662 0.0411376 0)
(8.67955 0.0437561 0)
(8.58759 0.0464386 0)
(8.49145 0.0493758 0)
(8.38991 0.0525166 0)
(8.28247 0.0558758 0)
(8.17177 0.0601379 0)
(8.05051 0.063922 0)
(7.92234 0.0684142 0)
(7.78723 0.0737568 0)
(7.64388 0.0789991 0)
(7.4883 0.0842727 0)
(7.32478 0.0902135 0)
(7.15151 0.0973857 0)
(6.96645 0.105293 0)
(6.76668 0.114197 0)
(6.55222 0.12469 0)
(6.32089 0.137465 0)
(6.06828 0.156286 0)
(9.8249 0.000801157 0)
(9.79372 0.00145765 0)
(9.78267 0.00819328 0)
(9.76786 0.012034 0)
(9.74904 0.0141564 0)
(9.72593 0.0154175 0)
(9.69985 0.0167045 0)
(9.67024 0.0181562 0)
(9.63717 0.0195492 0)
(9.60197 0.0210903 0)
(9.56227 0.0223074 0)
(9.51762 0.0235145 0)
(9.46937 0.0248391 0)
(9.41838 0.026777 0)
(9.36301 0.0288424 0)
(9.30531 0.0308897 0)
(9.24461 0.0326162 0)
(9.18034 0.0342973 0)
(9.11199 0.0365947 0)
(9.03879 0.0389939 0)
(8.9615 0.0415577 0)
(8.87824 0.0440418 0)
(8.79156 0.0468201 0)
(8.70005 0.0496836 0)
(8.60381 0.0528269 0)
(8.50257 0.0562015 0)
(8.39542 0.0597596 0)
(8.28511 0.0642626 0)
(8.1649 0.068446 0)
(8.03705 0.0732089 0)
(7.90232 0.0789029 0)
(7.75973 0.084538 0)
(7.60526 0.090271 0)
(7.44216 0.0965783 0)
(7.26894 0.104255 0)
(7.08423 0.112707 0)
(6.885 0.122251 0)
(6.67129 0.133454 0)
(6.44117 0.147057 0)
(6.18918 0.166828 0)
(9.88218 0.000992986 0)
(9.88999 0.00177013 0)
(9.87958 0.00855138 0)
(9.86535 0.0125231 0)
(9.84673 0.0147807 0)
(9.82373 0.0161558 0)
(9.79775 0.0175391 0)
(9.76882 0.0191111 0)
(9.73655 0.0205969 0)
(9.70196 0.0222313 0)
(9.66338 0.0236204 0)
(9.61943 0.0249873 0)
(9.57117 0.0264234 0)
(9.52059 0.0285077 0)
(9.46594 0.0306712 0)
(9.40887 0.0328276 0)
(9.34867 0.0346922 0)
(9.28461 0.0365133 0)
(9.21681 0.0389759 0)
(9.14391 0.0415748 0)
(9.06686 0.0443114 0)
(8.98422 0.0469945 0)
(8.898 0.0499418 0)
(8.80709 0.0530027 0)
(8.71078 0.0563556 0)
(8.60986 0.0599623 0)
(8.50306 0.0637246 0)
(8.39294 0.0684648 0)
(8.27362 0.0730222 0)
(8.14641 0.0781184 0)
(8.01206 0.084122 0)
(7.87039 0.090181 0)
(7.71699 0.0963471 0)
(7.55465 0.103094 0)
(7.38158 0.111256 0)
(7.19732 0.120282 0)
(6.99877 0.130475 0)
(6.7859 0.142367 0)
(6.55727 0.156851 0)
(6.30607 0.177516 0)
(9.99772 0.00136077 0)
(9.98057 0.00207367 0)
(9.97097 0.00890506 0)
(9.95746 0.0130167 0)
(9.9391 0.0154302 0)
(9.91611 0.0169196 0)
(9.89021 0.0183888 0)
(9.86186 0.0200642 0)
(9.83024 0.0216501 0)
(9.79613 0.0233772 0)
(9.75868 0.0249477 0)
(9.7154 0.0264958 0)
(9.66728 0.0280476 0)
(9.61706 0.0302512 0)
(9.56337 0.0325293 0)
(9.50691 0.0348014 0)
(9.44717 0.0368051 0)
(9.38335 0.0387735 0)
(9.31611 0.0414165 0)
(9.24354 0.0442087 0)
(9.1668 0.0471203 0)
(9.08492 0.0500162 0)
(8.99911 0.0531089 0)
(8.9089 0.0564184 0)
(8.81267 0.059971 0)
(8.71213 0.0638115 0)
(8.60563 0.0677951 0)
(8.49554 0.072754 0)
(8.37708 0.0777114 0)
(8.25064 0.0831323 0)
(8.11687 0.0894765 0)
(7.97607 0.0959233 0)
(7.82379 0.102572 0)
(7.66226 0.109766 0)
(7.48952 0.11844 0)
(7.30591 0.128061 0)
(7.10811 0.138848 0)
(6.89628 0.151531 0)
(6.66909 0.166821 0)
(6.41904 0.188492 0)
(10.0561 0.00153365 0)
(10.0665 0.00236543 0)
(10.0577 0.00924075 0)
(10.0449 0.0134924 0)
(10.027 0.0160778 0)
(10.004 0.0176987 0)
(9.97816 0.0192491 0)
(9.95033 0.0210261 0)
(9.9192 0.0227212 0)
(9.8855 0.0245294 0)
(9.84885 0.026258 0)
(9.80636 0.0280183 0)
(9.75865 0.029709 0)
(9.70887 0.0320122 0)
(9.65606 0.034402 0)
(9.60017 0.0368009 0)
(9.54097 0.0389725 0)
(9.47741 0.0410716 0)
(9.41067 0.0438878 0)
(9.33863 0.0469068 0)
(9.26221 0.0499688 0)
(9.18116 0.0530865 0)
(9.09584 0.0563491 0)
(9.00618 0.0598771 0)
(8.91029 0.0636769 0)
(8.81019 0.0677285 0)
(8.70402 0.0719661 0)
(8.59387 0.0771344 0)
(8.47613 0.082473 0)
(8.35057 0.0882494 0)
(8.21753 0.0949212 0)
(8.0776 0.101773 0)
(7.92634 0.108907 0)
(7.76556 0.11657 0)
(7.59346 0.125791 0)
(7.41054 0.13595 0)
(7.21377 0.147449 0)
(7.00283 0.1608 0)
(6.77722 0.177005 0)
(6.52862 0.19969 0)
(10.1742 0.00185067 0)
(10.1481 0.00264884 0)
(10.14 0.00956876 0)
(10.1279 0.0139701 0)
(10.1105 0.0167504 0)
(10.0876 0.0185056 0)
(10.0619 0.0201232 0)
(10.0345 0.021991 0)
(10.0038 0.0238044 0)
(9.97043 0.0256946 0)
(9.93438 0.0275915 0)
(9.89264 0.0295712 0)
(9.84554 0.031397 0)
(9.79627 0.0337866 0)
(9.74426 0.0363062 0)
(9.68892 0.0388412 0)
(9.63017 0.041168 0)
(9.56701 0.0434169 0)
(9.50077 0.0464222 0)
(9.42935 0.0496429 0)
(9.35336 0.0528722 0)
(9.27323 0.0562215 0)
(9.18836 0.0596413 0)
(9.09927 0.0634329 0)
(9.00384 0.0674547 0)
(8.90428 0.0717337 0)
(8.79851 0.0762469 0)
(8.68824 0.0816151 0)
(8.57117 0.0873502 0)
(8.44637 0.0934546 0)
(8.31432 0.100501 0)
(8.17517 0.107724 0)
(8.02491 0.115398 0)
(7.86473 0.123527 0)
(7.69355 0.1333 0)
(7.51152 0.144044 0)
(7.31575 0.156177 0)
(7.10588 0.170339 0)
(6.88164 0.187353 0)
(6.63486 0.211132 0)
(10.234 0.00199299 0)
(10.2265 0.00292729 0)
(10.2188 0.00988622 0)
(10.2074 0.0144311 0)
(10.1906 0.0174115 0)
(10.168 0.0193135 0)
(10.1425 0.0210065 0)
(10.1154 0.0229619 0)
(10.085 0.0249068 0)
(10.052 0.0268779 0)
(10.0163 0.0289269 0)
(9.97516 0.0311114 0)
(9.9289 0.0331053 0)
(9.88025 0.0355845 0)
(9.82883 0.0382322 0)
(9.77406 0.0408992 0)
(9.71576 0.0434024 0)
(9.65308 0.0458083 0)
(9.58721 0.0489673 0)
(9.51667 0.0524207 0)
(9.44123 0.0558265 0)
(9.36193 0.0593792 0)
(9.27768 0.0630029 0)
(9.18906 0.0670333 0)
(9.09422 0.0712994 0)
(8.99524 0.0758147 0)
(8.88997 0.0806048 0)
(8.77966 0.086203 0)
(8.66306 0.0922727 0)
(8.539 0.0987551 0)
(8.40793 0.106134 0)
(8.26966 0.113787 0)
(8.1203 0.121956 0)
(7.96072 0.13063 0)
(7.7906 0.140912 0)
(7.60971 0.152278 0)
(7.41501 0.165074 0)
(7.20605 0.179966 0)
(6.98322 0.197894 0)
(6.73829 0.222664 0)
(10.2944 0.00212492 0)
(10.3015 0.00319847 0)
(10.2941 0.0101934 0)
(10.283 0.0148779 0)
(10.267 0.0180713 0)
(10.2451 0.0201412 0)
(10.2197 0.0219068 0)
(10.1928 0.0239544 0)
(10.1628 0.0260322 0)
(10.1299 0.0280813 0)
(10.0944 0.0302807 0)
(10.0539 0.0326752 0)
(10.0085 0.0348346 0)
(9.96042 0.0374106 0)
(9.90946 0.0401819 0)
(9.85539 0.0429995 0)
(9.79753 0.0456874 0)
(9.73532 0.0482412 0)
(9.66982 0.0515685 0)
(9.6003 0.0552487 0)
(9.52553 0.0588197 0)
(9.44713 0.0626027 0)
(9.36351 0.0664483 0)
(9.27532 0.0707002 0)
(9.18117 0.0752351 0)
(9.08258 0.0799582 0)
(8.97801 0.0850769 0)
(8.86783 0.0909026 0)
(8.75162 0.0973314 0)
(8.62811 0.104158 0)
(8.49812 0.111902 0)
(8.36075 0.119966 0)
(8.2124 0.128694 0)
(8.05337 0.137862 0)
(7.8845 0.148712 0)
(7.70485 0.160648 0)
(7.51141 0.174215 0)
(7.30327 0.18983 0)
(7.08174 0.208653 0)
(6.83895 0.234488 0)
(10.3553 0.00224763 0)
(10.3735 0.00347778 0)
(10.3664 0.0105122 0)
(10.3553 0.0153259 0)
(10.3402 0.0187192 0)
(10.3193 0.0209787 0)
(10.2941 0.0228248 0)
(10.2674 0.0249664 0)
(10.2375 0.027171 0)
(10.2047 0.029313 0)
(10.1693 0.0316646 0)
(10.1293 0.0342561 0)
(10.0847 0.036582 0)
(10.0373 0.0392584 0)
(9.98674 0.0421641 0)
(9.93342 0.045136 0)
(9.87604 0.0480113 0)
(9.81429 0.0507295 0)
(9.74912 0.0542178 0)
(9.68056 0.0581072 0)
(9.60665 0.0618639 0)
(9.52914 0.0658845 0)
(9.44616 0.0699464 0)
(9.3585 0.0744422 0)
(9.26503 0.0792612 0)
(9.1667 0.0842002 0)
(9.06282 0.0896482 0)
(8.95305 0.0957168 0)
(8.83718 0.102519 0)
(8.71408 0.109659 0)
(8.58522 0.117789 0)
(8.44878 0.126252 0)
(8.3017 0.135589 0)
(8.14333 0.145252 0)
(7.97564 0.156673 0)
(7.79742 0.1692 0)
(7.6053 0.183542 0)
(7.39803 0.199937 0)
(7.17754 0.219574 0)
(6.93715 0.24655 0)
(10.4168 0.00236139 0)
(10.4431 0.00376149 0)
(10.4363 0.0108393 0)
(10.4251 0.0157782 0)
(10.4107 0.019342 0)
(10.3909 0.021811 0)
(10.3662 0.0237624 0)
(10.3395 0.0259866 0)
(10.3099 0.0283301 0)
(10.2771 0.0305769 0)
(10.2416 0.0330731 0)
(10.2021 0.0358487 0)
(10.1583 0.0383384 0)
(10.1114 0.0411337 0)
(10.0614 0.0441757 0)
(10.0087 0.0472991 0)
(9.95188 0.05037 0)
(9.89058 0.0532706 0)
(9.82572 0.0569108 0)
(9.75788 0.0609814 0)
(9.68497 0.0649544 0)
(9.60827 0.0692153 0)
(9.52601 0.0735064 0)
(9.43897 0.0782481 0)
(9.34618 0.0833515 0)
(9.24812 0.0885401 0)
(9.14478 0.0943002 0)
(9.03562 0.100639 0)
(8.92018 0.107815 0)
(8.79753 0.115268 0)
(8.66972 0.123772 0)
(8.53427 0.132648 0)
(8.38868 0.142601 0)
(8.23124 0.152794 0)
(8.06446 0.164751 0)
(7.88774 0.177893 0)
(7.69702 0.192996 0)
(7.49081 0.210247 0)
(7.27129 0.230699 0)
(7.03325 0.258778 0)
(10.5413 0.00255685 0)
(10.5104 0.00404683 0)
(10.5039 0.0111686 0)
(10.4929 0.0162398 0)
(10.4789 0.0199476 0)
(10.4601 0.0226283 0)
(10.4361 0.0247176 0)
(10.4094 0.0270266 0)
(10.3801 0.02951 0)
(10.3472 0.0318779 0)
(10.3116 0.0345077 0)
(10.2726 0.0374559 0)
(10.2294 0.0401124 0)
(10.1831 0.0430371 0)
(10.1336 0.046219 0)
(10.0815 0.0494873 0)
(10.0253 0.0527683 0)
(9.96442 0.055861 0)
(9.89988 0.0596528 0)
(9.83255 0.0638892 0)
(9.76057 0.0680925 0)
(9.68458 0.0725968 0)
(9.60311 0.077127 0)
(9.51674 0.0821196 0)
(9.42466 0.0875209 0)
(9.32703 0.0929841 0)
(9.22403 0.0990236 0)
(9.11561 0.105662 0)
(9.00083 0.113215 0)