# y+ ()       
# Time        	patch         	min           	max           	average       
6000          	bottom	4.597333e-02	2.457185e+00	6.122928e-01
