# y+ ()       
# Time        	patch         	min           	max           	average       
1000          	bottom	4.635637e-02	1.331786e+00	6.727430e-01
