/*--------------------------------*- C++ -*----------------------------------*\
| =========                 |                                                 |
| \\      /  F ield         | OpenFOAM: The Open Source CFD Toolbox           |
|  \\    /   O peration     | Version:  2506                                  |
|   \\  /    A nd           | Website:  www.openfoam.com                      |
|    \\/     M anipulation  |                                                 |
\*---------------------------------------------------------------------------*/
FoamFile
{
    version     2.0;
    format      ascii;
    arch        "LSB;label=32;scalar=64";
    class       volScalarField;
    location    "10";
    object      nut;
}
// * * * * * * * * * * * * * * * * * * * * * * * * * * * * * * * * * * * * * //

dimensions      [0 2 -1 0 0 0 0];

internalField   nonuniform List<scalar> 
72100
(
1.37098e-09
1.35841e-09
1.34135e-09
1.32331e-09
1.30164e-09
1.27807e-09
1.25266e-09
1.2257e-09
1.19734e-09
1.16765e-09
1.1367e-09
1.10454e-09
1.07119e-09
1.03665e-09
1.00096e-09
9.64121e-10
9.26147e-10
8.87046e-10
8.46853e-10
8.05535e-10
7.63087e-10
7.19624e-10
6.75244e-10
6.30044e-10
5.84053e-10
5.374e-10
4.90208e-10
4.42777e-10
3.95213e-10
3.48084e-10
3.01393e-10
2.56275e-10
2.12233e-10
1.71626e-10
1.32508e-10
9.97638e-11
6.80308e-11
4.67955e-11
2.45577e-11
1.63616e-11
7.13836e-09
7.11525e-09
7.08994e-09
7.04933e-09
6.99726e-09
6.93728e-09
6.86996e-09
6.79614e-09
6.71609e-09
6.62997e-09
6.53783e-09
6.43967e-09
6.33549e-09
6.22522e-09
6.10886e-09
5.98635e-09
5.85765e-09
5.72272e-09
5.58138e-09
5.43266e-09
5.27638e-09
5.11318e-09
4.94332e-09
4.76671e-09
4.5824e-09
4.39055e-09
4.19153e-09
3.98522e-09
3.77182e-09
3.55201e-09
3.3261e-09
3.09538e-09
2.86035e-09
2.62326e-09
2.38442e-09
2.14729e-09
1.91259e-09
1.68346e-09
1.46546e-09
1.25387e-09
1.26748e-07
1.26917e-07
1.26714e-07
1.26197e-07
1.25507e-07
1.24688e-07
1.2375e-07
1.22705e-07
1.21555e-07
1.20302e-07
1.18945e-07
1.17484e-07
1.15916e-07
1.14241e-07
1.12459e-07
1.10566e-07
1.08562e-07
1.06444e-07
1.04209e-07
1.01837e-07
9.93215e-08
9.66754e-08
9.39019e-08
9.09957e-08
8.79366e-08
8.47244e-08
8.13642e-08
7.78477e-08
7.41759e-08
7.03529e-08
6.63842e-08
6.22762e-08
5.80485e-08
5.37054e-08
4.92895e-08
4.47829e-08
4.03059e-08
3.57419e-08
3.14393e-08
2.69978e-08
9.05338e-07
9.09109e-07
9.08235e-07
9.05103e-07
9.00861e-07
8.95815e-07
8.90015e-07
8.83524e-07
8.76355e-07
8.68502e-07
8.59959e-07
8.50713e-07
8.40743e-07
8.30039e-07
8.18582e-07
8.06357e-07
7.93346e-07
7.79529e-07
7.64868e-07
7.49206e-07
7.32503e-07
7.14829e-07
6.96196e-07
6.76557e-07
6.55742e-07
6.33744e-07
6.10574e-07
5.86154e-07
5.60474e-07
5.3353e-07
5.0535e-07
4.75936e-07
4.45434e-07
4.13798e-07
3.81399e-07
3.47956e-07
3.14549e-07
2.79983e-07
2.47378e-07
2.13016e-07
3.40915e-06
3.42648e-06
3.42522e-06
3.41625e-06
3.40393e-06
3.38934e-06
3.37254e-06
3.35371e-06
3.33283e-06
3.30985e-06
3.28468e-06
3.25723e-06
3.22743e-06
3.19519e-06
3.1604e-06
3.12297e-06
3.08281e-06
3.0398e-06
2.99377e-06
2.94406e-06
2.8905e-06
2.83328e-06
2.77238e-06
2.70753e-06
2.63799e-06
2.56366e-06
2.48445e-06
2.39989e-06
2.30986e-06
2.2141e-06
2.11256e-06
2.00499e-06
1.89178e-06
1.77235e-06
1.64819e-06
1.51735e-06
1.38487e-06
1.24409e-06
1.11034e-06
9.64023e-07
8.34382e-06
8.3787e-06
8.37759e-06
8.36166e-06
8.33983e-06
8.31447e-06
8.28557e-06
8.25342e-06
8.21781e-06
8.1785e-06
8.13527e-06
8.08782e-06
8.03587e-06
7.97919e-06
7.91748e-06
7.85049e-06
7.77792e-06
7.69947e-06
7.61465e-06
7.52177e-06
7.42031e-06
7.31074e-06
7.19278e-06
7.06569e-06
6.92738e-06
6.77751e-06
6.61559e-06
6.44012e-06
6.25034e-06
6.04517e-06
5.824e-06
5.58529e-06
5.32947e-06
5.05365e-06
4.76116e-06
4.44449e-06
4.11741e-06
3.75693e-06
3.40956e-06
3.00856e-06
1.5494e-05
1.55346e-05
1.55303e-05
1.55069e-05
1.54764e-05
1.54425e-05
1.54049e-05
1.5364e-05
1.53193e-05
1.52703e-05
1.52164e-05
1.51571e-05
1.50919e-05
1.50203e-05
1.49418e-05
1.48558e-05
1.47619e-05
1.46594e-05
1.45475e-05
1.4423e-05
1.42849e-05
1.41341e-05
1.397e-05
1.37912e-05
1.35939e-05
1.33772e-05
1.31402e-05
1.28796e-05
1.2594e-05
1.22807e-05
1.19381e-05
1.15625e-05
1.11537e-05
1.07045e-05
1.022e-05
9.68249e-06
9.11726e-06
8.47179e-06
7.84135e-06
7.07067e-06
2.43042e-05
2.42906e-05
2.42596e-05
2.42246e-05
2.41889e-05
2.41553e-05
2.41209e-05
2.40875e-05
2.40551e-05
2.4017e-05
2.39601e-05
2.38977e-05
2.38291e-05
2.37535e-05
2.36703e-05
2.35787e-05
2.34779e-05
2.3367e-05
2.32448e-05
2.3106e-05
2.29487e-05
2.27749e-05
2.2584e-05
2.2374e-05
2.21385e-05
2.18768e-05
2.15872e-05
2.12647e-05
2.09071e-05
2.05105e-05
2.0072e-05
1.95858e-05
1.9051e-05
1.84562e-05
1.78075e-05
1.7076e-05
1.62988e-05
1.53886e-05
1.44945e-05
1.335e-05
3.38997e-05
3.38581e-05
3.3796e-05
3.37336e-05
3.36737e-05
3.36203e-05
3.35722e-05
3.35303e-05
3.34929e-05
3.34591e-05
3.34279e-05
3.33972e-05
3.33653e-05
3.33313e-05
3.32941e-05
3.32526e-05
3.32058e-05
3.3153e-05
3.30933e-05
3.30105e-05
3.29031e-05
3.27509e-05
3.25487e-05
3.23241e-05
3.20673e-05
3.17783e-05
3.14548e-05
3.10891e-05
3.06795e-05
3.02208e-05
2.97091e-05
2.91372e-05
2.85035e-05
2.7793e-05
2.70135e-05
2.61268e-05
2.51805e-05
2.40574e-05
2.29551e-05
2.15037e-05
4.46357e-05
4.45642e-05
4.44653e-05
4.43635e-05
4.42656e-05
4.41777e-05
4.41019e-05
4.40387e-05
4.39842e-05
4.39392e-05
4.39003e-05
4.38655e-05
4.38325e-05
4.3801e-05
4.37681e-05
4.37326e-05
4.36932e-05
4.36486e-05
4.35969e-05
4.35294e-05
4.34426e-05
4.3339e-05
4.32186e-05
4.30804e-05
4.28934e-05
4.26673e-05
4.24033e-05
4.20073e-05
4.15562e-05
4.10465e-05
4.04735e-05
3.98284e-05
3.9109e-05
3.82986e-05
3.74064e-05
3.63875e-05
3.52983e-05
3.39993e-05
3.27293e-05
3.10369e-05
5.65002e-05
5.64029e-05
5.62626e-05
5.61121e-05
5.59629e-05
5.58252e-05
5.57039e-05
5.55984e-05
5.55099e-05
5.54337e-05
5.53674e-05
5.531e-05
5.52592e-05
5.52113e-05
5.51648e-05
5.51176e-05
5.50664e-05
5.50121e-05
5.49493e-05
5.48807e-05
5.4802e-05
5.47044e-05
5.45905e-05
5.44565e-05
5.42865e-05
5.40761e-05
5.38207e-05
5.34903e-05
5.30933e-05
5.26309e-05
5.21022e-05
5.14231e-05
5.06188e-05
4.97101e-05
4.87075e-05
4.75617e-05
4.63344e-05
4.48736e-05
4.34485e-05
4.15528e-05
6.94266e-05
6.93058e-05
6.91222e-05
6.89156e-05
6.87038e-05
6.85009e-05
6.83164e-05
6.8152e-05
6.80102e-05
6.78852e-05
6.77741e-05
6.76764e-05
6.75893e-05
6.75101e-05
6.74334e-05
6.73589e-05
6.72834e-05
6.72041e-05
6.71185e-05
6.70279e-05
6.69279e-05
6.68091e-05
6.6672e-05
6.65118e-05
6.63312e-05
6.61183e-05
6.58585e-05
6.55361e-05
6.51267e-05
6.46237e-05
6.40255e-05
6.33448e-05
6.257e-05
6.17048e-05
6.07247e-05
5.94779e-05
5.81008e-05
5.64731e-05
5.48829e-05
5.27942e-05
8.3342e-05
8.32035e-05
8.29775e-05
8.27102e-05
8.24275e-05
8.21479e-05
8.18834e-05
8.16456e-05
8.14295e-05
8.12354e-05
8.10599e-05
8.09035e-05
8.07612e-05
8.0629e-05
8.05068e-05
8.03881e-05
8.02729e-05
8.01515e-05
8.00279e-05
7.9897e-05
7.97564e-05
7.9601e-05
7.94225e-05
7.92172e-05
7.89897e-05
7.87302e-05
7.84245e-05
7.80774e-05
7.76512e-05
7.71286e-05
7.64765e-05
7.57108e-05
7.48286e-05
7.38412e-05
7.27203e-05
7.14926e-05
7.00958e-05
6.8643e-05
6.69101e-05
6.46138e-05
9.81501e-05
9.79967e-05
9.77305e-05
9.74084e-05
9.70529e-05
9.66946e-05
9.63476e-05
9.60218e-05
9.57167e-05
9.54338e-05
9.51724e-05
9.49379e-05
9.47226e-05
9.45178e-05
9.43276e-05
9.4146e-05
9.39651e-05
9.37879e-05
9.36067e-05
9.3418e-05
9.32202e-05
9.30084e-05
9.27735e-05
9.25077e-05
9.22116e-05
9.1878e-05
9.14969e-05
9.107e-05
9.05807e-05
9.00107e-05
8.93194e-05
8.8482e-05
8.74987e-05
8.63839e-05
8.51072e-05
8.37069e-05
8.21133e-05
8.04494e-05
7.8522e-05
7.6764e-05
0.000113633
0.00011346
0.000113171
0.000112817
0.000112419
0.00011201
0.000111606
0.000111201
0.000110803
0.000110425
0.00011007
0.000109742
0.000109427
0.000109132
0.000108852
0.00010858
0.000108319
0.000108062
0.000107803
0.000107541
0.000107264
0.000106976
0.000106662
0.000106317
0.000105935
0.00010551
0.000105033
0.000104497
0.000103894
0.000103219
0.000102443
0.000101529
0.000100451
9.92184e-05
9.77783e-05
9.62056e-05
9.43959e-05
9.25236e-05
9.03299e-05
8.83155e-05
0.000129348
0.000129379
0.000129079
0.000128715
0.00012831
0.000127883
0.000127457
0.000127003
0.000126547
0.0001261
0.000125676
0.000125247
0.000124829
0.000124423
0.000124037
0.000123659
0.000123295
0.000122935
0.000122577
0.000122215
0.000121845
0.000121461
0.000121051
0.000120605
0.000120122
0.000119585
0.00011899
0.000118328
0.000117585
0.000116759
0.000115831
0.000114787
0.000113572
0.000112195
0.000110582
0.000108842
0.00010678
0.000104728
0.000102199
0.00010001
0.000145581
0.000145821
0.000145496
0.000145101
0.000144665
0.000144196
0.000143727
0.00014324
0.000142758
0.000142283
0.00014182
0.000141322
0.000140832
0.000140344
0.000139845
0.000139352
0.000138861
0.000138377
0.000137902
0.000137417
0.00013693
0.000136429
0.000135908
0.000135347
0.000134738
0.000134076
0.000133341
0.000132531
0.000131633
0.000130633
0.000129516
0.000128282
0.000126865
0.000125288
0.000123453
0.000121492
0.00011914
0.000116859
0.000113921
0.000111646
0.000162413
0.000162887
0.000162525
0.000162091
0.000161589
0.000161054
0.000160499
0.000159956
0.000159408
0.000158874
0.000158349
0.000157819
0.000157293
0.000156761
0.000156192
0.000155606
0.000154996
0.000154374
0.00015375
0.000153135
0.000152512
0.000151876
0.000151216
0.00015052
0.000149768
0.000148957
0.000148068
0.00014709
0.000146014
0.000144825
0.000143502
0.000142037
0.000140388
0.000138564
0.000136458
0.000134204
0.000131527
0.000128915
0.000125555
0.000123004
0.000179832
0.000180556
0.000180166
0.000179692
0.000179134
0.000178532
0.000177889
0.000177254
0.00017661
0.000175975
0.000175351
0.000174745
0.000174149
0.000173552
0.000172944
0.00017232
0.000171637
0.000170893
0.000170121
0.000169351
0.000168577
0.000167788
0.000166972
0.000166115
0.000165207
0.000164224
0.000163166
0.000162006
0.000160731
0.000159327
0.000157776
0.000156073
0.00015416
0.000152054
0.000149657
0.000147075
0.000144045
0.000141036
0.00013726
0.00013421
0.00019783
0.000198819
0.000198413
0.000197884
0.000197281
0.000196608
0.000195889
0.000195152
0.000194423
0.000193673
0.000192935
0.000192216
0.000191502
0.000190798
0.000190109
0.000189419
0.000188692
0.00018789
0.000186992
0.000186059
0.000185117
0.000184165
0.000183177
0.000182142
0.000181055
0.000179888
0.000178632
0.000177272
0.000175786
0.000174154
0.000172355
0.000170389
0.000168193
0.000165788
0.00016307
0.000160138
0.00015674
0.000153307
0.000149105
0.000145489
0.000216402
0.000217662
0.000217234
0.000216673
0.000216014
0.000215274
0.000214485
0.000213661
0.000212817
0.000211971
0.000211116
0.000210271
0.000209437
0.000208609
0.000207789
0.000206958
0.000206142
0.000205305
0.000204336
0.000203246
0.000202141
0.000201007
0.000199832
0.000198611
0.000197317
0.000195953
0.000194484
0.000192895
0.000191176
0.000189307
0.00018725
0.000184995
0.000182505
0.000179786
0.000176722
0.000173426
0.00016964
0.000165774
0.000161127
0.00015693
0.000235543
0.00023709
0.000236634
0.000236051
0.000235334
0.000234536
0.00023367
0.000232755
0.00023181
0.000230855
0.000229891
0.000228919
0.000227947
0.000226979
0.000226017
0.000225044
0.000224086
0.000223132
0.000222115
0.000220901
0.00021964
0.000218319
0.000216951
0.000215523
0.000214018
0.000212428
0.000210731
0.000208904
0.00020693
0.000204792
0.000202462
0.000199913
0.000197103
0.000194043
0.000190627
0.000186953
0.000182758
0.000178447
0.000173332
0.000168576
0.000255247
0.000257074
0.000256607
0.000255991
0.000255237
0.000254386
0.000253436
0.000252439
0.000251396
0.000250325
0.000249234
0.000248139
0.000247037
0.000245924
0.000244809
0.000243692
0.000242576
0.000241452
0.000240327
0.000239047
0.000237618
0.000236107
0.00023454
0.000232892
0.000231166
0.000229335
0.000227385
0.000225309
0.000223067
0.000220643
0.000218008
0.000215146
0.000212002
0.000208587
0.000204797
0.000200725
0.000196113
0.000191344
0.000185745
0.000180438
0.000275514
0.000277627
0.000277147
0.000276504
0.000275722
0.000274806
0.000273794
0.000272705
0.000271572
0.000270385
0.000269168
0.000267936
0.000266702
0.000265449
0.000264175
0.000262908
0.000261615
0.000260322
0.000259033
0.000257669
0.000256072
0.000254381
0.000252595
0.000250734
0.000248772
0.000246689
0.000244483
0.000242122
0.000239586
0.000236865
0.00023391
0.000230718
0.00022723
0.000223445
0.000219258
0.000214768
0.000209712
0.000204475
0.000198377
0.000192514
0.000296339
0.000298752
0.000298251
0.0002976
0.00029678
0.000295798
0.000294734
0.00029355
0.000292331
0.000291039
0.000289709
0.000288342
0.000286939
0.000285531
0.000284115
0.000282677
0.000281216
0.000279738
0.000278262
0.000276774
0.000275015
0.000273144
0.00027115
0.00026906
0.000266843
0.000264508
0.000262021
0.000259371
0.000256531
0.000253489
0.000250207
0.000246657
0.000242789
0.000238616
0.000234016
0.000229102
0.000223573
0.000217857
0.00021124
0.000204828
0.000317719
0.000320416
0.000319926
0.000319253
0.000318395
0.000317384
0.000316232
0.000315001
0.000313656
0.000312269
0.000310812
0.000309318
0.000307779
0.000306213
0.00030463
0.000303025
0.000301388
0.000299714
0.000298038
0.000296378
0.000294459
0.000292403
0.000290205
0.000287878
0.000285412
0.000282793
0.000280027
0.000277067
0.000273917
0.000270534
0.000266895
0.000262971
0.000258714
0.000254131
0.000249104
0.00024373
0.000237726
0.000231517
0.000224355
0.00021739
0.000339657
0.000342659
0.000342176
0.00034147
0.000340571
0.000339526
0.00033832
0.000337005
0.000335575
0.000334081
0.00033251
0.000330877
0.000329217
0.000327495
0.00032574
0.000323957
0.000322138
0.00032027
0.00031838
0.000316488
0.000314439
0.000312186
0.000309775
0.000307206
0.000304482
0.000301581
0.000298519
0.000295236
0.000291744
0.000288007
0.000283994
0.000279696
0.000275034
0.000270024
0.000264533
0.000258689
0.000252196
0.000245463
0.000237745
0.000230217
0.000362151
0.000365461
0.000364957
0.000364255
0.00036332
0.000362237
0.000360984
0.000359591
0.000358085
0.000356483
0.000354797
0.000353042
0.000351234
0.000349364
0.000347445
0.000345461
0.000343461
0.000341412
0.000339296
0.000337171
0.000334956
0.000332506
0.000329873
0.000327063
0.000324063
0.000320884
0.000317502
0.000313908
0.000310063
0.000305963
0.000301558
0.000296851
0.000291752
0.000286303
0.000280332
0.000273997
0.000266978
0.00025972
0.000251428
0.000243319
0.000385197
0.00038882
0.000388317
0.000387593
0.000386666
0.000385534
0.000384228
0.000382782
0.000381182
0.00037948
0.000377676
0.000375798
0.000373827
0.000371819
0.000369724
0.000367576
0.000365362
0.000363117
0.000360802
0.000358452
0.00035604
0.000353361
0.000350505
0.000347441
0.00034417
0.000340711
0.000336998
0.000333073
0.000328875
0.000324406
0.000319599
0.000314453
0.000308916
0.000302986
0.000296529
0.000289685
0.000282112
0.000274306
0.000265403
0.000256715
0.0004088
0.000412764
0.000412247
0.000411509
0.000410563
0.000409387
0.000408036
0.000406525
0.000404864
0.00040306
0.000401145
0.000399144
0.000397035
0.000394853
0.00039259
0.000390275
0.000387867
0.000385407
0.000382879
0.000380301
0.000377694
0.000374801
0.000371683
0.000368367
0.000364811
0.000361061
0.000357031
0.000352751
0.000348192
0.000343328
0.000338105
0.000332539
0.000326522
0.000320106
0.000313143
0.000305767
0.000297631
0.000289244
0.000279727
0.000270437
0.000432961
0.000437202
0.000436693
0.000435992
0.000435015
0.000433823
0.000432417
0.000430849
0.00042911
0.000427216
0.000425189
0.000423066
0.000420848
0.000418501
0.000416087
0.000413573
0.000411001
0.000408316
0.00040556
0.00040273
0.000399898
0.00039678
0.000393418
0.000389842
0.000386033
0.000381949
0.000377606
0.00037297
0.000368045
0.000362759
0.000357109
0.000351093
0.0003446
0.000337684
0.000330189
0.000322256
0.000313542
0.000304565
0.000294407
0.000284501
0.000457678
0.000462396
0.000461856
0.000460957
0.000459953
0.000458811
0.000457473
0.000455665
0.000453932
0.000451973
0.000449867
0.000447602
0.000445232
0.000442763
0.000440175
0.000437476
0.000434694
0.000431832
0.000428851
0.000425774
0.000422678
0.000419317
0.000415736
0.000411885
0.000407788
0.000403398
0.000398735
0.000393747
0.000388427
0.000382729
0.000376653
0.000370142
0.000363175
0.000355735
0.00034768
0.000339189
0.000329862
0.000320276
0.000309456
0.000298911
0.000482952
0.000487979
0.000487352
0.000486707
0.000485575
0.000484422
0.000482949
0.00048132
0.000479304
0.000477316
0.000474987
0.000472736
0.000470213
0.000467602
0.000464837
0.000461998
0.000458995
0.00045593
0.000452709
0.000449393
0.000446062
0.000442465
0.000438631
0.000434512
0.000430125
0.000425428
0.000420424
0.000415079
0.000409342
0.000403253
0.000396717
0.000389746
0.000382245
0.000374281
0.000365667
0.000356588
0.000346629
0.000336408
0.000324906
0.000313713
0.000508791
0.000514062
0.000513398
0.000513015
0.000512029
0.000510474
0.000508932
0.000507438
0.000505323
0.00050316
0.000501034
0.00049852
0.000495679
0.000493039
0.000490123
0.000487094
0.000483938
0.000480611
0.000477193
0.000473645
0.000470014
0.000466197
0.0004621
0.000457716
0.000453028
0.000448029
0.00044266
0.000436953
0.000430833
0.000424321
0.000417321
0.000409879
0.000401843
0.000393321
0.000384137
0.000374444
0.000363848
0.00035298
0.000340768
0.000328918
0.000535196
0.000540795
0.000540401
0.000539681
0.000538636
0.00053727
0.000535619
0.000533688
0.000532109
0.000529667
0.000527608
0.000524655
0.000521941
0.000519033
0.000515992
0.000512801
0.00050947
0.000505946
0.00050233
0.000498513
0.000494586
0.000490514
0.000486167
0.000481514
0.000476527
0.000471212
0.000465502
0.000459406
0.000452899
0.000445937
0.000438484
0.000430507
0.000421994
0.000412904
0.000403096
0.000392782
0.000381526
0.000370012
0.000357063
0.000344532
0.000562164
0.000568064
0.000567999
0.000566904
0.000565785
0.000564672
0.00056289
0.000561138
0.000559112
0.000556799
0.000554233
0.000551734
0.000549014
0.000545846
0.000542505
0.000539063
0.000535611
0.000531895
0.000528016
0.000523978
0.000519794
0.000515459
0.000510849
0.000505911
0.000500645
0.000494971
0.000488928
0.00048245
0.000475533
0.000468113
0.000460197
0.000451733
0.000442666
0.000433002
0.000422576
0.000411645
0.000399704
0.000387512
0.000373819
0.000360594
0.000589698
0.000596158
0.000595741
0.000594931
0.000593749
0.000592554
0.000591009
0.000589139
0.000586586
0.00058445
0.000581678
0.00057933
0.000576373
0.000573172
0.000569744
0.000565997
0.000562255
0.000558314
0.000554316
0.000550055
0.000545602
0.000541019
0.000536144
0.000530912
0.000525327
0.000519335
0.000512945
0.000506065
0.000498741
0.000490883
0.000482479
0.000473518
0.000463858
0.000453624
0.000442594
0.000431013
0.000418369
0.000405478
0.000391038
0.000377121
0.000617809
0.000624631
0.000623803
0.000623352
0.000622469
0.00062083
0.000619565
0.000617549
0.000615194
0.000612894
0.000610273
0.000606994
0.000604172
0.000600714
0.000597363
0.000593763
0.000589728
0.000585421
0.000581158
0.000576737
0.000572009
0.000567175
0.000562019
0.000556516
0.000550603
0.000544312
0.000537533
0.000530287
0.000522516
0.000514225
0.000505306
0.000495823
0.000485625
0.000474805
0.000463128
0.000450912
0.000437567
0.000423968
0.000408738
0.000394112
0.000646494
0.000653771
0.000653308
0.000652007
0.00065151
0.000649747
0.000648413
0.000646273
0.000644159
0.000641683
0.000638879
0.000635734
0.000632687
0.000629339
0.000625714
0.000621829
0.000617696
0.000613326
0.000608984
0.00060399
0.000599048
0.000593953
0.000588514
0.000582736
0.000576511
0.000569854
0.000562704
0.000555081
0.000546868
0.0005381
0.00052872
0.000518686
0.000507926
0.000496512
0.000484192
0.000471305
0.000457252
0.000442953
0.000426939
0.000411575
0.000675758
0.000683516
0.000683048
0.000682097
0.000680697
0.000679718
0.000677859
0.000675568
0.000673746
0.000671103
0.000668087
0.000665147
0.000661864
0.00065827
0.000654367
0.000650567
0.000646107
0.000641781
0.000637216
0.000631889
0.000626803
0.000621367
0.000615642
0.000609548
0.000603008
0.000595968
0.00058847
0.000580431
0.00057179
0.000562588
0.000552696
0.000542118
0.000530788
0.000518771
0.000505826
0.000492243
0.000477444
0.000462433
0.000445626
0.000429564
0.0007056
0.000713324
0.000712823
0.000712322
0.000711292
0.000709796
0.000707826
0.000705863
0.000703921
0.0007011
0.000698325
0.000695168
0.000691645
0.000687773
0.000684
0.00067993
0.000675545
0.000670874
0.000665539
0.000660766
0.000655159
0.00064941
0.000643386
0.000636964
0.000630109
0.000622746
0.000614854
0.000606387
0.000597307
0.000587625
0.000577207
0.000566114
0.000554225
0.000541582
0.000527954
0.000513714
0.000498205
0.000482462
0.000464824
0.000448033
0.000736025
0.000743999
0.000743988
0.000742959
0.000741905
0.000740319
0.000738716
0.000736636
0.00073409
0.000731565
0.000728611
0.000725715
0.000721943
0.000718266
0.000714231
0.000709385
0.000705128
0.000700544
0.000694803
0.000689674
0.000683838
0.000678134
0.000671649
0.000665017
0.000657802
0.000650116
0.000641825
0.000632914
0.000623414
0.000613207
0.000602311
0.00059069
0.00057816
0.000564891
0.000550605
0.00053568
0.000519436
0.000502968
0.000484537
0.000467001
0.000767035
0.000776099
0.000775049
0.00077449
0.00077284
0.000771698
0.000770025
0.000768332
0.00076562
0.000762942
0.000759796
0.000756708
0.000752684
0.000748753
0.000744422
0.0007402
0.000735155
0.000730255
0.000725009
0.000719028
0.000713206
0.00070708
0.000700742
0.000693577
0.00068607
0.00067798
0.000669323
0.000660037
0.000650077
0.000639397
0.000627978
0.000615752
0.000602626
0.00058877
0.000573799
0.000558184
0.000541174
0.000523995
0.000504747
0.000486487
0.000798633
0.000807449
0.000806873
0.00080631
0.000805136
0.00080394
0.000801614
0.000799847
0.00079753
0.000794675
0.000791337
0.000788046
0.000784284
0.000780084
0.00077598
0.000771476
0.000766557
0.000760792
0.00075568
0.00074973
0.000743469
0.000736866
0.000730388
0.000723001
0.000714823
0.000706491
0.00069742
0.000687713
0.000677255
0.000666092
0.000654139
0.000641331
0.000627652
0.000613132
0.00059749
0.000581193
0.000563465
0.000545516
0.000525471
0.000506485
0.000830812
0.000839484
0.000839517
0.000838917
0.00083769
0.000836433
0.000833988
0.000832104
0.000829658
0.000826658
0.000823671
0.000820179
0.00081619
0.000812265
0.000807889
0.00080306
0.000798354
0.000792712
0.000786696
0.000780838
0.000774118
0.000767524
0.000760088
0.000752794
0.000744613
0.000735824
0.000726113
0.000715903
0.000705011
0.000693321
0.000680792
0.000667488
0.000653151
0.000637989
0.000621687
0.000604691
0.000586202
0.000567537
0.000546662
0.000526987
0.000863573
0.00087347
0.000872253
0.00087165
0.000870365
0.000869053
0.000867088
0.000865124
0.000862539
0.000859357
0.000856801
0.000852511
0.000848846
0.000844689
0.000840022
0.000835454
0.000829873
0.000824413
0.000818525
0.00081225
0.000805575
0.000798503
0.000791036
0.000782736
0.000774594
0.000765103
0.000755188
0.00074468
0.000733308
0.000721129
0.000708007
0.000694134
0.000679158
0.000663372
0.000646373
0.000628658
0.000609392
0.000590046
0.000568346
0.000547958
0.000896929
0.000906943
0.00090631
0.000905028
0.000904325
0.000902314
0.000900904
0.000898186
0.000895465
0.000893383
0.000890054
0.00088612
0.000882259
0.000877828
0.000872875
0.000868012
0.000862653
0.000856825
0.000850561
0.000843863
0.000837284
0.000830254
0.000822805
0.000813918
0.000804695
0.000795166
0.000785263
0.000773826
0.000762107
0.000749394
0.00073579
0.000721229
0.00070568
0.000689191
0.000671481
0.000653111
0.000633075
0.000612991
0.000590521
0.000569401
0.000930863
0.000940313
0.00094036
0.000939691
0.000938312
0.00093686
0.000935386
0.000932527
0.000929661
0.000927476
0.000923297
0.000920478
0.000915717
0.000911669
0.00090704
0.000901253
0.000895571
0.000889977
0.000883283
0.000876719
0.000869681
0.000862738
0.000854231
0.000845852
0.000836528
0.000826359
0.000815401
0.000803888
0.000791405
0.00077815
0.00076399
0.0007488
0.000732604
0.00071548
0.000697086
0.000677987
0.000657243
0.000636428
0.00061313
0.000591338
0.00096538
0.000974904
0.00097496
0.000974292
0.000972813
0.000971328
0.000969785
0.000967493
0.000964485
0.000961468
0.00095776
0.000954097
0.000950446
0.000945487
0.000940609
0.000935115
0.000929068
0.000923137
0.000917285
0.000910285
0.00090337
0.000895359
0.000886865
0.00087793
0.000868021
0.000857195
0.000846043
0.000834136
0.000821063
0.000807397
0.000792589
0.000776857
0.000760007
0.000742246
0.000723095
0.000703293
0.000681805
0.000660267
0.00063616
0.000613719
0.00100048
0.00101076
0.00101008
0.00100862
0.0010086
0.00100628
0.00100467
0.00100229
0.00099986
0.00099597
0.000993524
0.000988922
0.000985086
0.000980549
0.000974665
0.000969574
0.000963855
0.000957529
0.000951318
0.00094385
0.000937124
0.000928576
0.000919563
0.000910055
0.000900089
0.000889149
0.000877871
0.000864658
0.000851299
0.000837146
0.000821677
0.000805318
0.000787812
0.000769379
0.000749504
0.000729005
0.000706711
0.000684476
0.000659599
0.000636483
0.00103615
0.0010462
0.00104565
0.00104491
0.00104334
0.00104248
0.00104003
0.00103828
0.00103575
0.00103165
0.00102835
0.00102426
0.00102019
0.00101545
0.0010107
0.00100456
0.000998499
0.000992514
0.000985203
0.000977957
0.000970796
0.000962402
0.000952786
0.000943308
0.000932753
0.000921739
0.000909165
0.000896285
0.000882048
0.000867156
0.000851215
0.000834233
0.000816023
0.00079687
0.000776357
0.000755091
0.000732057
0.000709134
0.000683455
0.000659663
0.00107238
0.00108203
0.00108161
0.00108169
0.00108
0.00107833
0.00107655
0.00107395
0.0010713
0.0010686
0.0010643
0.0010608
0.00105654
0.00105072
0.0010465
0.00104004
0.00103436
0.00102728
0.00102025
0.00101326
0.00100494
0.000996715
0.000987216
0.000977158
0.000965286
0.000954236
0.000940927
0.000927889
0.000913379
0.0008976
0.000881055
0.000863502
0.000844588
0.000824727
0.000803498
0.000781542
0.000757781
0.000734115
0.00070771
0.000683251
0.00110919
0.00111843
0.00111789
0.00111797
0.00111712
0.00111532
0.00111351
0.00111073
0.00110797
0.00110517
0.0011015
0.00109701
0.00109251
0.00108801
0.00108195
0.00107669
0.00106993
0.00106319
0.00105575
0.0010491
0.00104025
0.00103153
0.00102145
0.0010108
0.000999574
0.000987214
0.000973763
0.000959937
0.000945201
0.000928518
0.000911088
0.000893079
0.00087347
0.000852936
0.00083092
0.000808295
0.000783745
0.000759381
0.000732245
0.000707169
0.00114655
0.00115537
0.00115531
0.00115452
0.00115361
0.00115266
0.00114984
0.00114877
0.00114498
0.00114203
0.00113819
0.00113346
0.00112876
0.00112406
0.00111849
0.00111299
0.00110583
0.00109953
0.00109241
0.00108533
0.00107676
0.00106601
0.00105682
0.00104482
0.00103367
0.00102059
0.00100704
0.000992426
0.000976252
0.000959852
0.000942122
0.000922852
0.000902715
0.000881482
0.000858714
0.00083534
0.000810055
0.000785007
0.000757092
0.000731384
0.00118445
0.00119282
0.00119391
0.00119214
0.00119122
0.00119022
0.00118821
0.00118525
0.0011822
0.00117914
0.00117512
0.00117196
0.00116612
0.00116115
0.00115535
0.00114951
0.00114369
0.00113616
0.00112947
0.00112117
0.00111213
0.00110155
0.00109185
0.00107991
0.00106739
0.00105432
0.00104003
0.00102463
0.00100821
0.000991539
0.000972895
0.000953093
0.000932006
0.00091024
0.000886792
0.000862688
0.000836639
0.000810932
0.00078225
0.0007559
0.00122289
0.00123081
0.00123181
0.00123092
0.00122994
0.00122796
0.00122684
0.00122371
0.0012215
0.00121732
0.00121312
0.00120891
0.00120463
0.00119943
0.00119327
0.00118716
0.00118101
0.00117393
0.00116599
0.00115722
0.00114769
0.00113819
0.00112633
0.00111535
0.00110214
0.00108834
0.00107329
0.00105775
0.00104114
0.00102295
0.00100392
0.00098372
0.000961882
0.000939231
0.000915017
0.000890201
0.000863415
0.000837034
0.000807626
0.000780691
0.00126184
0.00126932
0.00126974
0.00126985
0.00126885
0.00126674
0.0012646
0.00126236
0.00126004
0.00125569
0.00125227
0.00124684
0.0012424
0.00123692
0.00123145
0.00122497
0.00121847
0.00121193
0.00120444
0.00119521
0.00118515
0.0011743
0.00116261
0.00115022
0.00113712
0.00112261
0.00110749
0.00109115
0.00107367
0.00105519
0.00103524
0.00101403
0.000992276
0.00096829
0.000943485
0.000917922
0.000890468
0.000863313
0.000833248
0.000805722
0.0013013
0.00130832
0.00130874
0.00130885
0.00130778
0.00130667
0.00130337
0.00130102
0.00129759
0.00129407
0.00129051
0.00128687
0.00128116
0.00127545
0.00126967
0.00126386
0.00125701
0.0012501
0.00124224
0.00123254
0.00122196
0.0012105
0.00119911
0.00118606
0.00117227
0.00115701
0.00114191
0.00112472
0.00110637
0.00108704
0.0010661
0.00104511
0.00102175
0.000997952
0.000971936
0.000945905
0.000917625
0.000889849
0.000859083
0.000830924
0.00134126
0.00134783
0.00134875
0.0013478
0.00134673
0.00134447
0.00134319
0.00134076
0.00133715
0.00133454
0.00132975
0.00132595
0.00132104
0.00131502
0.00130896
0.00130184
0.00129561
0.00128835
0.00127912
0.0012699
0.0012588
0.00124769
0.00123481
0.001222
0.00120753
0.00119233
0.00117567
0.00115846
0.00113995
0.00111893
0.00109837
0.00107642
0.00105193
0.00102732
0.00100106
0.000973902
0.000944881
0.000916512
0.000885046
0.000856282
0.00138167
0.00138781
0.00138877
0.00138775
0.00138661
0.00138426
0.00138295
0.00138041
0.00137777
0.00137396
0.00137004
0.00136496
0.00135983
0.00135461
0.00134823
0.00134176
0.00133522
0.0013266
0.00131792
0.00130727
0.00129658
0.00128493
0.00127142
0.00125709
0.00124281
0.0012269
0.00121026
0.00119142
0.00117287
0.00115235
0.00113011
0.0011065
0.0010829
0.00105653
0.00103003
0.00100214
0.000972326
0.000943225
0.000911097
0.000881814
0.00142254
0.00142732
0.00142745
0.00142757
0.00142755
0.00142626
0.00142371
0.00142106
0.00141718
0.00141319
0.00141023
0.00140493
0.00139956
0.00139408
0.00138849
0.00138278
0.00137484
0.00136577
0.00135569
0.00134452
0.00133433
0.00132213
0.00130801
0.00129388
0.00127804
0.00126138
0.00124487
0.00122596
0.00120495
0.00118509
0.00116188
0.00113789
0.00111263
0.00108644
0.00105823
0.00103034
0.000999781
0.000970016
0.000937279
0.000907387
0.00146385
0.00146805
0.00146818
0.00146829
0.00146708
0.00146695
0.00146431
0.00146155
0.00145748
0.00145449
0.00145024
0.00144473
0.00144023
0.00143448
0.0014286
0.00142151
0.00141323
0.00140488
0.00139429
0.00138365
0.00137093
0.0013582
0.00134539
0.00133066
0.00131405
0.00129752
0.00127848
0.00125968
0.00123854
0.00121701
0.00119361
0.00116935
0.00114301
0.00111639
0.00108703
0.00105826
0.00102713