/*--------------------------------*- C++ -*----------------------------------*\
| =========                 |                                                 |
| \\      /  F ield         | OpenFOAM: The Open Source CFD Toolbox           |
|  \\    /   O peration     | Version:  2506                                  |
|   \\  /    A nd           | Website:  www.openfoam.com                      |
|    \\/     M anipulation  |                                                 |
\*---------------------------------------------------------------------------*/
FoamFile
{
    version     2.0;
    format      ascii;
    arch        "LSB;label=32;scalar=64";
    class       volScalarField;
    location    "10";
    object      omega;
}
// * * * * * * * * * * * * * * * * * * * * * * * * * * * * * * * * * * * * * //

dimensions      [0 0 -1 0 0 0 0];

internalField   nonuniform List<scalar> 
72100
(
3.51397e+06
3.51397e+06
3.51397e+06
3.51397e+06
3.51397e+06
3.51397e+06
3.51397e+06
3.51397e+06
3.51397e+06
3.51397e+06
3.51397e+06
3.51397e+06
3.51397e+06
3.51397e+06
3.51397e+06
3.51397e+06
3.51397e+06
3.51396e+06
3.51396e+06
3.51396e+06
3.51396e+06
3.51396e+06
3.51396e+06
3.51396e+06
3.51396e+06
3.51396e+06
3.51396e+06
3.51396e+06
3.51396e+06
3.51396e+06
3.51395e+06
3.51395e+06
3.51395e+06
3.51395e+06
3.51395e+06
3.51395e+06
3.51395e+06
3.51395e+06
3.51395e+06
3.51395e+06
597702
596668
596651
596639
596623
596602
596578
596552
596524
596494
596462
596429
596394
596358
596321
596281
596241
596199
596156
596111
596065
596018
595970
595920
595870
595818
595766
595713
595660
595606
595553
595500
595448
595397
595348
595300
595256
595209
595174
595101
202916
202179
202133
202100
202059
202008
201951
201887
201818
201744
201665
201582
201494
201402
201306
201205
201101
200991
200878
200760
200637
200510
200378
200242
200102
199958
199809
199657
199500
199341
199179
199015
198849
198686
198520
198365
198202
198066
197906
197784
100636
100147
100088
100041
99983.6
99913
99831.4
99740
99639.6
99531
99414.5
99290.2
99158.5
99019.2
98872.5
98718.3
98556.4
98386.8
98209.5
98023.9
97829.5
97626.4
97414.5
97194
96964.3
96725.2
96476.6
96218.5
95950.5
95673.4
95386.8
95092.7
94789.5
94483.3
94167.8
93860
93536.8
93249
92919.4
92672
62962
62664.9
62610.7
62567.4
62513
62444
62361.9
62268
62163.3
62048.5
61923.9
61789.9
61646.6
61494
61332.2
61161
60980.2
60789.5
60588.8
60377.5
60154.9
59921
59675.1
59417.3
59146.4
58862
58563.5
58250.1
57920.9
57575.9
57213.9
56835.7
56439.4
56029
55598.8
55162.8
54700.8
54259.5
53767
53352.9
45021.6
44855.1
44818.1
44789.2
44750.6
44698.2
44633
44556
44468.2
44370
44262
44144.4
44017.5
43881.3
43735.7
43580.6
43415.8
43241.1
43056.2
42860.6
42654
42435.8
42205.4
41962.2
41705.2
41433.7
41146.6
40842.7
40520.7
40179.3
39817
39432.5
39023.8
38590.9
38129.3
37645.2
37124.8
36596.6
36011.7
35462.1
34591.5
34503.1
34485
34472
34451
34418.1
34373.9
34319.2
34254.4
34180.1
34096.8
34004.7
33904
33794.8
33677.1
33550.8
33415.7
33271.7
33118.5
32956.1
32784.6
32603.2
32411
32207.3
31991.4
31762.6
31519.9
31261.8
30986.9
30693.6
30379.7
30043.1
29681.3
29291.7
28870.3
28416.1
27920.5
27392.8
26806.1
26203.2
27722.6
27679.7
27676.4
27675.9
27668.9
27652
27625.7
27590.2
27546
27493.4
27432.9
27364.6
27288.6
27205.2
27114.1
27015.5
26909.2
26795.2
26673.1
26544
26408.4
26264.8
26112.4
25950.4
25778.7
25596.8
25403.7
25198.3
24979.1
24744.6
24492.6
24220.6
23926.4
23605.9
23255.4
22870.2
22444
21973.7
21446.1
20866
22852.1
22834.3
22839.5
22846.4
22848.3
22842.4
22829
22808.2
22780.4
22745.8
22704.6
22656.8
22602.6
22541.8
22474.5
22400.7
22320.4
22233.4
22139.6
22040.1
21935.1
21823.4
21704.5
21577.7
21444
21302.7
21152.9
20994.3
20825.3
20644.3
20449.7
20239
20010.2
19759.1
19482.2
19173.1
18827.2
18434.6
17989
17473.6
19224.5
19218.8
19226.7
19235.6
19240.7
19240.4
19234.6
19223.8
19208.1
19187.6
19162.3
19132
19096.5
19055.7
19009.4
18957.7
18900.6
18837.8
18769.5
18696.1
18617.3
18533
18442.8
18346.2
18244.4
18136.9
18023.1
17902.8
17775
17638.4
17491.7
17332.8
17160.2
16969.7
16758.1
16518.8
16247.8
15933.1
15570.5
15133.8
16433.4
16432.1
16438.2
16444.1
16447.2
16446.7
16443.2
16437.3
16429.1
16418.5
16405.1
16388.5
16368.2
16343.9
16315.3
16282.2
16244.8
16202.7
16156.2
16105.1
16049.4
15989.1
15924.1
15854.1
15779.6
15700.5
15616.6
15527.8
15433.9
15334.1
15227.3
15111.7
14985.4
14845.3
14688.4
14508.8
14303.1
14058.6
13771.6
13413.4
14236
14234.6
14235.5
14234.4
14230.5
14224.6
14218.3
14212.3
14207.1
14202.2
14196.9
14190.3
14181.7
14170.4
14156
14138.3
14117
14092.2
14063.6
14031.4
13995.4
13955.6
13912
13864.6
13813.4
13758.5
13700
13637.7
13571.9
13502.3
13428.4
13348.6
13261
13163.2
13052.8
12924.3
12774
12590.2
12369.6
12083.7
12474.8
12470.7
12464
12452.5
12437.4
12421.6
12407.7
12397.3
12390.9
12387.8
12387
12387
12386.8
12385.5
12382.3
12376.8
12368.6
12357.7
12344
12327.4
12307.7
12285
12259.4
12231
12199.6
12165.4
12128.6
12089
12046.8
12002.1
11954.9
11904.3
11848.8
11786.6
11715.2
11630.5
11527.6
11397.5
11234.8
11014.2
11042.5
11033.9
11017.8
10993.2
10963.7
10934.1
10908.7
10890
10878.7
10874
10874.3
10878
10883.3
10889.2
10894.4
10898.3
10900.6
10900.9
10899.2
10895.3
10889.2
10880.7
10870
10857.3
10842.5
10825.9
10807.4
10787.3
10765.4
10742.1
10717.3
10690.9
10661.9
10629
10590.2
10542.1
10480
10396.8
10285
10124.1
9862.01
9848
9821.14
9781.64
9735.21
9688.95
9648.89
9618.76
9599.52
9590.25
9588.97
9593.6
9602.04
9612.53
9623.76
9634.84
9645.14
9654.32
9662.21
9668.63
9673.49
9676.69
9678.37
9678.69
9677.75
9675.73
9672.79
9669.05
9664.65
9659.7
9654.31
9648.56
9642.04
9633.88
9622.52
9605.27
9578.12
9534.77
9467.65
9359.88
8876.05
8856.08
8817.88
8762.43
8697.54
8632.77
8576.05
8532.23
8502.73
8486.57
8481.45
8484.87
8494.16
8507.18
8522.34
8538.43
8554.72
8570.69
8586.09
8600.74
8614.45
8627.16
8638.94
8650.02
8660.54
8670.68
8680.7
8690.78
8701.12
8711.92
8723.34
8735.51
8748.37
8761.46
8773.66
8782.92
8785.93
8777.12
8749.45
8687.93
8041.75
8015.83
7966.06
7894.18
7810.1
7725.76
7651.13
7592.17
7550.89
7526.32
7515.83
7516.36
7524.8
7538.61
7555.91
7575.22
7595.66
7616.61
7637.71
7658.73
7679.44
7699.77
7719.74
7739.58
7759.5
7779.69
7800.46
7822.07
7844.77
7868.87
7894.62
7922.25
7951.86
7983.36
8015.97
8048.29
8077.54
8099.12
8106.38
8086.01
7328
7296.29
7235.01
7146.65
7043.08
6938.62
6845.3
6770.32
6716.31
6682.31
6665.4
6661.93
6668.37
6681.76
6699.83
6720.9
6743.94
6768.25
6793.45
6819.21
6845.29
6871.56
6898.04
6924.92
6952.43
6980.82
7010.39
7041.5
7074.45
7109.66
7147.45
7188.19
7232.12
7279.43
7329.63
7382
7434.04
7482.43
7520.52
7537.53
6711.63
6674.42
6602.03
6497.62
6374.8
6250.21
6137.87
6046.36
5978.92
5934.73
5910.56
5902.27
5905.91
5918.02
5935.94
5957.74
5982.19
6008.54
6036.41
6065.51
6095.5
6126.23
6157.7
6190.09
6223.59
6258.51
6295.16
6333.94
6375.26
6419.57
6467.31
6518.98
6574.94
6635.64
6700.83
6770.38
6842.09
6913.91
6979.05
7029.85
6174.95
6132.64
6049.88
5930.26
5788.99
5644.83
5513.7
5405.58
5324.38
5269.43
5237.32
5223.52
5223.61
5233.71
5250.77
5272.6
5297.66
5325.04
5354.42
5385.61
5418.23
5452.12
5487.24
5523.72
5561.79
5601.73
5643.9
5688.74
5736.68
5788.27
5844.04
5904.61
5970.46
6042.26
6119.99
6204.03
6292.48
6384.46
6473.19
6553.96
5704.16
5657.29
5565.16
5431.58
5273.17
5110.52
4961.35
4836.98
4742.06
4676.1
4635.6
4615.73
4611.62
4619.02
4634.56
4655.74
4680.77
4708.53
4738.54
4770.77
4804.93
4840.82
4878.38
4917.72
4959.05
5002.65
5048.92
5098.31
5151.31
5208.51
5270.52
5338.1
5411.83
5492.57
5580.54
5676.5
5778.95
5887.96
5996.99
6103.86
5288.41
5237.63
5137.33
4991.39
4817.51
4637.91
4471.92
4332.08
4223.79
4146.89
4097.8
4071.45
4062.64
4066.78
4080.17
4100.04
4124.42
4152
4182.05
4214.48
4249.26
4286.16
4325.1
4366.17
4409.58
4455.64
4504.71
4557.27
4613.88
4675.16
4741.79
4814.61
4894.33
4981.99
5077.99
5183.47
5297.3
5420.33
5546.51
5675.69
4919.07
4865.08
4757.94
4601.47
4414.13
4219.47
4038.21
3884.04
3763.09
3675.55
3617.88
3584.85
3570.98
3571.39
3582.12
3600.12
3623.27
3650.1
3679.68
3711.7
3746.36
3783.42
3822.82
3864.65
3909.1
3956.5
4007.2
4061.71
4120.6
4184.55
4254.28
4330.72
4414.68
4507.35
4609.33
4722.04
4844.75
4978.98
5119.26
5267.07
4589.17
4532.7
4420.15
4255.08
4056.5
3848.95
3654.27
3487.18
3354.52
3256.88
3190.83
3151.06
3131.92
3128.28
3135.92
3151.61
3173.04
3198.59
3227.21
3258.37
3292.3
3328.81
3367.9
3409.64
3454.24
3502
3553.29
3608.65
3668.63
3733.96
3805.42
3883.98
3970.57
4066.47
4172.5
4290.29
4419.54
4562.26
4713.72
4876.66
4293.03
4234.82
4118.28
3946.64
3739.13
3520.97
3314.92
3136.53
2993.34
2886.33
2812.26
2765.85
2741.35
2733.43
2737.69
2750.71
2770.01
2793.85
2821.07
2850.99
2883.69
2919.1
2957.24
2998.18
3042.16
3089.44
3140.43
3195.64
3255.66
3321.23
3393.17
3472.51
3560.25
3657.77
3766.05
3886.94
4020.51
4169.19
4329.04
4503.76
4025.98
3966.75
3847.62
3671.39
3457.27
3230.86
3015.57
2827.65
2675.24
2559.74
2478.19
2425.37
2395.5
2383.19
2383.86
2393.94
2410.79
2432.57
2458.02
2486.37
2517.46
2551.34
2588.01
2627.6
2670.3
2716.42
2766.33
2820.56
2879.7
2944.52
3015.85
3094.76
3182.34
3280.01
3388.92
3511.07
3646.91
3799.19
3964.8
4148.15
3784.18
3724.58
3604.18
3425.26
3206.78
2974.44
2752.07
2556.43
2396.2
2273.21
2184.8
2125.91
2090.81
2074.07
2071.03
2077.99
2092.17
2111.62
2135.01
2161.49
2190.69
2222.7
2257.53
2295.31
2336.24
2380.61
2428.82
2481.37
2538.87
2602.08
2671.87
2749.31
2835.56
2932.09
3040.18
3161.96
3298.19
3451.93
3620.83
3809.86
3564.37
3505.03
3384.57
3204.72
2983.98
2747.95
2520.59
2319.05
2152.43
2023.02
1928.45
1863.92
1823.82
1802.71
1795.9
1799.62
1810.98
1827.91
1849.03
1873.39
1900.51
1930.42
1963.14
1998.77
2037.55
2079.73
2125.74
2176.05
2231.28
2292.18
2359.64
2434.75
2518.69
2612.97
2718.97
2838.92
2973.89
3127.12
3297.06
3489.07
3363.87
3305.31
3185.87
3006.68
2785.63
2547.96
2317.59
2111.91
1940.34
1805.59
1705.64
1635.96
1591.12
1565.77
1555.22
1555.64
1564.09
1578.4
1597.1
1619.2
1644.08
1671.74
1702.15
1735.41
1771.76
1811.44
1854.87
1902.53
1955.01
2013.06
2077.56
2149.62
2230.44
2321.53
2424.37
2541.23
2673.49
2824.49
2993.44
3185.95
3180.35
3123.05
3005.58
2828.44
2608.82
2371.39
2139.84
1931.65
1756.52
1617.51
1512.97
1438.67
1389.42
1360.01
1345.8
1342.93
1348.42
1360.06
1376.27
1396.01
1418.59
1443.89
1471.88
1502.64
1536.37
1573.35
1613.95
1658.65
1708.03
1762.83
1823.91
1892.37
1969.42
2056.57
2155.36
2268.11
2396.4
2543.69
2709.85
2900.67
3011.89
2956.22
2841.51
2667.64
2450.96
2215.41
1984.33
1775.16
1597.76
1455.53
1347.18
1268.84
1215.55
1182.3
1164.54
1158.44
1161
1169.94
1183.64
1200.98
1221.23
1244.14
1269.66
1297.86
1328.89
1363.05
1400.67
1442.23
1488.28
1539.55
1596.87
1661.33
1734.13
1816.78
1910.83
2018.63
2141.94
2284.26
2446.08
2633.28
2856.79
2803.07
2691.79
2522.19
2309.73
2077.51
1848.34
1639.52
1461.05
1316.61
1205.23
1123.4
1066.48
1029.63
1008.48
999.235
998.907
1005.18
1016.38
1031.34
1049.26
1069.8
1092.87
1118.5
1146.82
1178.11
1212.7
1251.03
1293.64
1341.21
1394.57
1454.77
1523
1600.73
1689.54
1791.75
1909.27
2045.62
2201.81
2383.73
2713.6
2662.11
2554.77
2390.25
2183.08
1955.41
1729.41
1522.11
1343.64
1197.91
1084.23
999.495
939.341
899.181
874.806
862.532
859.389
863.061
871.809
884.42
900.053
918.282
938.953
962.058
987.722
1016.18
1047.74
1082.83
1121.98
1165.79
1215.1
1270.89
1334.37
1406.92
1490.14
1586.32
1697.46
1827.05
1976.56
2151.84
2581.08
2531.99
2428.98
2270.27
2069.24
1847.09
1625.3
1420.58
1243.01
1096.82
981.535
894.466
831.469
788.293
760.896
745.725
739.859
741.003
747.365
757.697
771.116
787.107
805.468
826.143
849.231
874.937
903.554
935.471
971.178
1011.28
1056.53
1107.9
1166.53
1233.79
1311.24
1401.1
1505.46
1627.72
1769.75
1937.29
2458.15
2411.57
2313.2
2160.81
1966.63
1750.77
1534.02
1332.73
1156.91
1010.98
894.77
805.862
740.415
694.531
664.328
646.405
637.926
636.624
640.687
648.821
660.107
673.959
690.116
708.478
729.109
752.194
777.976
806.83
839.212
875.693
916.965
963.967
1017.8
1079.75
1151.37
1234.79
1332.12
1446.69
1580.67
1739.64
2343.85
2299.86
2206.38
2060.64
1873.8
1664.89
1453.85
1256.67
1083.31
938.259
821.72
731.462
663.989
615.695
582.901
562.375
551.401
547.751
549.6
555.626
564.869
576.689
590.762
606.945
625.266
645.878
668.978
694.917
724.123
757.129
794.573
837.332
886.486
943.221
1009.06
1086.03
1176.26
1282.95
1408.5
1558.32
2237.37
2196
2107.56
1968.69
1789.55
1588.07
1383.26
1190.76
1020.4
876.784
760.399
669.299
600.201
549.814
514.64
491.649
478.298
472.393
472.118
476.131
483.435
493.337
505.455
519.601
535.769
554.073
574.664
597.861
624.07
653.785
687.591
726.296
770.945
822.631
882.828
953.465
1036.64
1135.42
1252.36
1392.66
2137.96
2099.24
2015.83
1884.01
1712.82
1519.11
1320.95
1133.57
966.608
824.901
709.114
617.579
547.249
495.082
457.751
432.462
416.844
408.766
406.455
408.553
414.017
422.122
432.416
444.668
458.84
475.008
493.276
513.929
537.343
563.982
594.368
629.244
669.607
716.47
771.249
835.75
912.03
1003
1111.31
1241.92
2044.98
2008.88
1930.5
1805.77
1642.71
1456.94
1265.76
1083.8
920.608
781.173
666.37
574.732
503.546
449.893
410.632
383.28
365.537
355.367
351.102
351.357
355.073
361.495
370.082
380.57
392.883
407.069
423.206
441.527
462.358
486.145
513.354
544.653
580.998
623.306
672.935
731.565
801.198
884.557
984.364
1105.29
1957.88
1924.35
1850.96
1733.26
1578.37
1400.69
1216.67
1040.36
881.218
744.347
630.832
539.418
467.707
412.846
371.93
342.757
323.001
310.799
304.643
303.09
305.156
310.017
317.021
325.885
336.497
348.87
363.07
379.263
397.703
418.839
443.119
471.107
503.72
541.776
586.572
639.648
702.941
778.986
870.517
981.926
1876.13
1845.11
1776.6
1665.89
1519.12
1349.59
1172.81
1002.31
847.439
713.353
601.371
510.468
438.519
382.714
340.441
309.677
287.925
273.655
265.633
262.395
262.884
266.214
271.753
279.15
288.248
299.019
311.522
325.825
342.094
360.824
382.437
407.355
436.493
470.603
510.911
558.789
616.11
685.202
768.769
870.936
1799.3
1770.66
1706.93
1603.08
1464.36
1302.94
1133.45
968.861
818.407
687.275
577.029
486.872
414.925
358.447
315.104
282.904
259.219
243.189
233.506
228.75
227.771
229.669
233.796
239.764
247.37
256.547
267.332
279.815
294.174
310.809
330.1
352.236
378.216
408.682
444.804
487.839
539.587
602.15
678.145
771.429
1726.97
1700.65
1641.53
1544.36
1413.55
1260.17
1097.99
939.353
793.388
665.337
556.976
467.763
396.013
339.12
294.955
261.374
236.155
218.637
207.497
201.365
199.055
199.648
202.469
207.108
213.32
221.001
230.162
240.882
253.334
267.843
284.781
304.475
327.732
354.938
387.258
425.798
472.313
528.797
597.68
682.532
1658.81
1634.7
1579.99
1489.31
1366.22
1220.78
1065.85
913.211
771.785
646.898
540.522
452.402
381.004
323.916
279.14
244.432
217.966
199.172
186.764
179.393
175.884
175.294
176.943
180.375
185.323
191.65
199.336
208.439
219.106
231.606
246.28
263.496
283.935
308.158
337.213
371.703
413.41
464.202
526.434
603.374
1594.48
1572.44
1521.97
1437.57
1322.01
1184.37
1036.59
889.926
753.075
631.401
527.084
440.164
369.244
312.143
266.94
231.386
203.911
184.012
170.484
162.005
157.411
155.756
156.352
158.715
162.537
167.669
174.048
181.71
190.772
201.455
214.057
228.938
246.683
267.897
293.527
324.45
361.948
407.553
463.56
533.091
1533.69
1513.6
1467.17
1388.8
1280.55
1150.55
1009.8
869.079
736.813
618.375
516.183
430.531
360.185
303.217
257.732
221.59
193.297
172.44
157.908
148.429
142.85
140.236
139.884
141.301
144.142
148.227
153.464
159.873
167.531
176.615
187.381
200.159
215.447
233.832
256.163
283.393
316.833
357.954
408.301
470.897
1476.17
1457.95
1415.32
1342.73
1241.53
1118.97
985.146
850.311
722.618
607.436
507.422
423.07
353.373
296.641
250.987
214.477
185.515
163.82
148.38
137.986
131.508
128.023
126.826
127.394
129.374
132.55
136.808
142.138
148.588
156.294
165.469
176.406
189.524
205.362
224.67
248.377
277.742
314.346
359.806
416.095
1421.69
1405.21
1366.2
1299.1
1204.71
1089.37
962.345
833.31
710.166
598.272
500.461
417.436
348.438
292.009
246.272
209.556
180.053
157.618
141.346
130.103
122.795
118.514
116.551
116.361
117.58
119.968
123.385
127.791
133.212
139.745
147.564
156.917
168.161
181.769
198.399
218.903
244.443
276.563
317.054
367.903
1370.04
1355.15
1319.57
1257.72
1169.85
1061.51
941.147
817.827
699.196
590.609
495.004
413.345
345.073
288.98
243.24
206.412
176.479
153.389
136.348
124.311
116.224
111.205
108.535
107.664
108.207
109.903
112.593
116.213
120.76
126.3
132.974
140.984
150.632
162.327
176.636
194.318
216.414
244.354
279.919
325.395
1321.02
1307.62
1275.24
1218.35
1136.75
1035.17
921.321
803.636
689.484
584.203
490.819
410.544
343.03
287.276
241.59
204.686
174.439
150.77
133.018
120.228
111.401
105.682
102.354
100.856
100.789
101.872
103.933
106.877
110.683
115.387
121.096
127.977
136.281
146.355
158.684
173.93
193.009
217.2
248.175
288.241
1274.46
1262.45
1233.05
1180.84
1105.23
1010.18
902.668
790.535
680.837
578.847
487.718
408.833
342.103
286.69
241.083
204.055
173.647
149.469
131.054
117.541
108.007
101.615
97.6595
95.5752
94.9521
95.4857
96.9939
99.3516
102.523
106.522
111.422
117.356
124.533
133.245
143.903
157.077
173.56
194.475
221.332
256.309
1230.19
1219.45
1192.84
1145.05
1075.13
986.372
885.024
778.355
673.084
574.376
485.523
408.049
342.117
287.05
241.545
204.375
173.88
149.257
130.215
116.006
105.787
98.743
94.1815
91.5404
90.3952
90.4286
91.4397
93.2857
95.9098
99.3085
103.526
108.666
114.901
122.474
131.732
143.159
157.439
175.539
198.795
229.178
1188.07
1178.49
1154.46
1110.84
1046.32
963.608
868.252
766.939
666.065
570.656
484.091
408.06
342.942
288.217
242.826
205.511
174.955
149.941
130.312
115.433
104.542
96.8621
91.7081
88.5283
86.8827
86.4503
87.0063
88.3973
90.5454
93.4255
97.0635
101.537
106.983
113.602
121.69
131.654
144.078
159.788
179.949
206.295
1147.94
1139.43
1117.78
1078.08
1018.7
941.773
852.223
756.166
659.647
567.555
483.307
408.744
344.456
290.091
244.794
207.356
176.701
151.369
131.196
115.675
104.124
95.8151
90.0748
86.3644
84.2349
83.3567
83.4887
84.4652
86.1905
88.6171
91.7569
95.6649
100.447
106.269
113.378
122.119
132.987
146.684
164.213
187.077
1109.71
1102.17
1082.73
1046.65
992.124
920.76
836.821
745.925
653.713
564.953
483.055
409.99
346.555
292.572
247.352
209.811
178.943
153.416
132.749
116.617
104.418
95.4804
89.1578
84.9163
82.3106
80.998
80.7264
81.3161
82.6549
84.6811
87.3878
90.8091
95.0279
100.178
106.468
114.185
123.751
135.758
151.067
170.962
1073.24
1066.59
1049.19
1016.48
966.534
900.473
821.966
736.107
648.159
562.742
483.229
411.717
349.157
295.577
250.431
212.793
181.675
155.985
134.878
118.165
105.334
95.7672
88.862
84.0861
81.0024
79.2603
78.595
78.8155
79.7949
81.4593
83.7822
86.7798
90.514
95.0957
100.694
107.552
116.026
126.619
140.061
157.444
1038.44
1032.59
1017.06
987.503
941.854
880.833
807.574
726.629
642.911
560.835
483.743
413.834
352.195
299.045
253.978
216.236
184.865
158.985
137.501
120.245
106.798
96.6086
89.1145
83.8003
80.2323
78.0584
77.0017
76.8629
77.5012
78.829
80.805
83.4272
86.7402
90.8328
95.8435
101.976
109.533
118.938
130.811
146.079
1005.2
1000.07
986.246
959.624
918.015
861.786
793.563
717.414
637.882
559.148
484.523
416.26
355.599
302.913
257.947
220.087
188.472
162.3
140.553
122.801
108.76
97.9535
89.8651
84.0041
79.9432
77.3298
75.8791
75.3836
75.6896
76.6981
78.3521
80.6344
83.5766
87.2419
91.7478
97.2624
104.044
112.448
123.003
136.491
973.442
968.962
956.696
932.777
894.949
843.265
779.874
708.394
632.988
557.604
485.492
418.941
359.31
307.127
262.291
224.318
192.464
165.966
143.982
125.786
111.177
99.7614
91.0776
84.6598
80.0944
77.0299
75.1784
74.3227
74.298
74.9954
76.3434
78.3138
80.9196
84.2089
88.2738
93.2578
99.3781
106.934
116.377
128.366
943.081
939.19
928.344
906.902
872.6
825.206
766.459
699.514
628.171
556.144
486.582
421.814
363.279
311.645
266.972
228.897
196.808
169.983
147.717
129.154
114.013
102.003
92.7232
85.7408
80.6579
77.129
74.8642
73.6409
73.2834
73.6695
74.7222
76.3983
78.6928
81.6432
85.3196
89.8401
95.3908
102.224
110.722
121.444
914.04
910.668
901.107
881.947
850.936
807.584
753.275
690.728
623.382
554.708
487.739
424.817
367.447
316.425
271.955
233.802
201.485
174.342
151.721
132.863
117.235
104.653
94.7813
87.2263
81.6144
77.6063
74.914
73.3099
72.6132
72.6861
73.4456
74.8354
76.8392
79.4756
82.8042
86.915
91.9688
98.178
105.87
115.516
886.247
883.325
874.925
857.864
829.914
790.38
740.295
681.999
618.567
553.235
488.908
427.893
371.759
321.421
277.209
239.024
206.489
179.032
156.031
136.868
120.813
107.692
97.2355
89.1042
82.9515
78.4481
75.3145
73.3148
72.2648
72.0202
72.4833
73.59
75.3133
77.6557
80.6635
84.4078
89.0228
94.6886
101.685
110.412
859.636
857.121
849.764
834.62
809.488
773.545
727.483
673.291
613.688
551.684
490.033
430.985
376.171
326.591
282.705
244.536
211.806
184.04
160.659
141.102
124.71
111.094
100.073
91.3675
84.6633
79.6504
76.0571
73.6463
72.2273
71.6544
71.8147
72.6377
74.0843
76.1456
78.8514
82.261
86.4823
91.6694
98.0595
105.995
834.146
831.999
825.581
812.177
789.644
757.048
714.813
664.57
608.721
550.016
491.061
434.045
380.635
331.902
288.419
250.318
217.427
189.361
165.604
145.624
128.896
114.831
103.278
94.0068
86.7464
81.2122
77.1419
74.301
72.4981
71.5799
71.4271
71.9608
73.1305
74.9168
77.335
80.4324
84.2936
89.0531
94.9098
102.156
809.724
807.9
802.322
790.495
770.37
740.891
702.272
655.817
603.632
548.197
491.957
437.042
385.115
337.325
294.328
256.356
223.348
194.989
170.854
150.447
133.31
118.88
106.831
97.0129
89.1975
83.1335
78.5706
75.2809
73.0764
71.7959
71.3163
71.5508
72.4384
73.9496
76.0888
78.8888
82.4172
86.7875
92.1688
98.8102
786.31
784.773
779.946
769.554
751.637
725.069
689.853
647.023
598.399
546.197
492.693
439.941
389.581
342.824
300.396
262.622
229.541
200.918
176.41
155.583
138.001
123.214
110.713
100.375
92.0148
85.415
80.3455
76.5913
73.9644
72.3045
71.4816
71.4034
72.0004
73.2333
75.0962
77.6083
80.8236
84.8334
89.7835
95.8876
763.862
762.577
758.421
749.319
733.421
709.56
677.549
638.186
593.012
543.999
493.24
442.704
394.002
348.362
306.585
269.086
235.98
207.135
182.273
161.032
142.997
127.774
114.901
104.08
95.1928
88.0581
82.4727
78.2396
75.1703
73.1113
71.9277
71.5202
71.8144
72.7628
74.347
76.5758
79.4903
83.1616
87.7147
93.3351
742.332
741.26
737.707
729.77
715.718
694.357
665.362
629.302
587.464
541.587
493.579
445.305
398.338
353.905
312.865
275.717
242.647
213.624
188.435
166.783
148.303
132.62
119.362
108.112
98.7227
91.062
84.9578
80.2313
76.7043
74.2256
72.6631
71.9088
71.8846
72.5369
73.8366
75.7807
78.3999
81.7498
85.9339
91.1127
721.656
720.779
717.763
710.886
698.509
679.459
653.294
620.368
581.746
538.945
493.691
447.717
402.551
359.413
319.201
282.485
249.518
220.367
194.886
172.839
153.918
137.771
124.062
112.44
102.59
94.4211
87.8022
82.5729
78.5749
75.6584
73.6966
72.5777
72.2188
72.56
73.5649
75.2199
77.5453
80.583
84.4185
89.1877
701.794
701.096
698.558
692.628
681.781
664.86
641.334
611.384
575.856
536.058
493.543
449.9
406.598
364.838
325.545
289.346
256.562
227.342
201.612
179.196
159.839
143.229
129.054
117.021
106.772
98.126
91.0031
85.27
80.789
77.4209
75.0394
73.5369
72.8255
72.8397
73.5361
74.8941
76.9237
79.6525
83.1517
87.5362
682.73
682.177
680.049
674.963
665.51
650.543
629.475
602.337
569.784
532.907
493.1
451.812
410.427
370.125
331.843
296.248
263.737
234.518
208.591
185.841
166.061
148.993
134.353
121.859
111.241
102.158
94.5532
88.324
83.3547
79.5214
76.7046
74.7984
73.7152
73.3841
73.7582
74.8082
76.5339
78.9544
82.1244
86.1421
664.424
663.989
662.21
657.877
649.669
636.496
617.707
593.218
563.504
529.465
492.329
453.404
413.981
375.217
338.038
303.144
270.998
241.853
215.793
192.75
172.575
155.062
139.958
126.993
115.938
106.486
98.4383
91.7308
86.2766
81.969
78.704
76.376
74.9015
74.2066
74.2411
74.9687
76.3809
78.4893
81.3329
84.9936
646.833
646.498
645.034
641.352
634.257
622.711
606.026
584.018
556.999
525.707
491.188
454.627
417.213
380.057
344.067
309.977
278.287
249.303
223.175
199.897
179.366
161.428
145.864
132.433
120.913
111.07
102.635
95.4782
89.5515
84.7707
81.0467
78.2832
76.3985
75.3208
74.9967
75.3859
76.4736
78.2599
80.7755
84.0857
629.943
629.685
628.492
625.374
619.271
609.193
594.438
574.737
550.267
521.615
489.655
455.445
420.078
384.589
349.877
316.683
285.548
256.818
230.698
207.25
186.412
168.075
152.063
138.173
126.187
115.905
107.111
99.5477
93.1722
87.926
83.7392
80.5294
78.2193
76.7403
76.0389
76.0726
76.8204
78.2737
80.4544
83.416
613.713
613.527
612.553
609.936
604.707
595.948
582.957
565.393
543.319
517.184
487.716
455.829
422.526
388.759
355.41
323.21
292.726
264.349
238.325
214.768
193.68
174.984
158.549
144.207
131.762
121.028
111.815
103.906
97.1197
91.4284
86.7836
83.1219
80.3749
78.4801
77.3836
77.0434
77.4328
78.5407
80.3773
82.9864
598.106
597.987
597.202
595.024
590.572
582.987
571.599
556.005
536.173
512.428
485.365
455.762
424.521
392.525
360.612
329.498
299.765
271.836
245.999
222.412
201.135
182.128
165.307
150.529
137.635
126.449
116.796
108.503
101.363
95.2628
90.1771
86.0655
82.8753
80.5521
79.0458
78.3138
78.3282
79.0741
80.555
82.8053
583.108
583.037
582.425
580.622
576.859
570.323
560.378
546.591
528.848
507.363
482.605
455.236
426.047
395.854
365.437
335.491
306.604
279.219
253.663
230.14
208.743
189.481
172.314
157.128
143.796
132.164
122.066
113.352
105.862
99.4036
93.9074
89.3595
85.7274
82.9671
81.0379
79.8984
79.521
79.8889
80.9991
82.8799
568.692
568.665
568.197
566.717
563.55
557.954
549.304
537.169
521.365
502.007
479.447
454.251
427.091
398.716
369.843
341.139
313.187
286.448
261.27
237.9
216.46
197.009
179.539
163.982
150.233
138.162
127.627
118.482
110.592
103.816
97.9486
92.991
88.9284
85.7315
83.3701
81.8106
81.0253
80.9984
81.7226
83.2214
554.836
554.846
554.494
553.292
550.642
545.881
538.396
527.762
513.747
496.382
475.915
452.816
427.651
401.093
373.801
346.407
319.473
293.473
268.772
245.636
224.24
204.674
186.96
171.073
156.933
144.44
133.474
123.901
115.597
108.437
102.263
96.937
92.4677
88.8443
86.0509
84.0611
82.8556
82.418
82.7406
83.8438
541.514
541.552
541.295
540.335
538.135
534.106
527.669
518.393
506.023
490.512
472.029
450.941
427.731
402.981
377.294
351.261
325.422
300.245
276.114
253.305
232.041
212.436
194.546
178.377
163.881
150.989
139.602
129.609
120.887
113.323
106.8
101.165
96.3271
92.2999
89.0821
86.6603
85.0254
84.1642
84.0709
84.7627
528.707
528.763
528.589
527.833
526.025
522.636
517.133
509.086
498.218
484.429
467.813
448.647
427.337
404.373
380.307
355.675
330.997
306.723
283.246
260.862
239.817
220.249
202.253
185.86
171.058
157.799
146.009
135.599
126.464
118.495
111.584
105.627
100.477
96.0812
92.458
89.6122
87.5444
86.2506
85.7284
85.995
516.397
516.462
516.363
515.778
514.308
511.477
506.8
499.857
490.357
478.157
463.293
445.956
426.478
405.272
382.826
359.628
336.165
312.871
290.131
268.265
247.522
228.077
210.043
193.494
178.436
164.849
152.685
141.87
132.325
123.951
116.643
110.316
104.872
100.159
96.1624
92.91
90.4153
88.6856
87.7253
87.5536
504.568
504.642
504.596
504.16
502.98
500.632
496.679
490.725
482.465
471.726
458.496
442.894
425.174
405.687
384.848
363.103
340.896
318.648
296.727
275.462
255.109
235.874
217.886
201.245
185.987
172.115
159.609
148.414
138.468
129.687
121.986
115.274
109.475
104.491
100.169
96.5397
93.6356
91.4756
90.0719
89.4535
493.201
493.288
493.281
492.968
492.031
490.103
486.788
481.712
474.57
465.172
453.454
439.482
423.443
405.625
386.374
366.09
345.174
324.023
302.997
282.412
262.536
243.594
225.734
209.072
193.678
179.574
166.764
155.218
144.889
135.71
127.613
120.517
114.34
109.013
104.432
100.475
97.1904
94.6159
92.7752
91.7069
482.279
482.374
482.406
482.19
481.458
479.894
477.139
472.838
466.7
458.522
448.2
435.75
421.308
405.098
387.407
368.581
348.983
328.976
308.904
289.077
269.762
251.195
233.543
216.937
201.472
187.196
174.132
162.27
151.58
142.02
133.531
126.047
119.488
113.791
108.887
104.671
101.054
98.0947
95.8336
94.319
471.789
471.889
471.95
471.812
471.261
470.007
467.733
464.118
458.879
451.801
442.761
431.733
418.8
404.128
387.957
370.576
352.308
333.482
314.416
295.414
276.741
258.63
241.269
224.8
209.335
194.948
181.685
169.548
158.529
148.606
139.735
131.86
124.922
118.849
113.589
109.068
105.188
101.889
99.2351
97.2888
461.718
461.819
461.901
461.83
461.428
460.438
458.583
455.566
451.126
445.04
437.173
427.463
415.946
402.741
388.037
372.078
355.138
337.517
319.504
301.388
283.429
265.853
248.864
232.611
217.225
202.797
189.387
177.025
165.72
155.459
146.221
137.964
130.644
124.198
118.567
113.698
109.53
105.96
102.958
100.608
452.049
452.148
452.246
452.234
451.951
451.186
449.69
447.2
443.462
438.269
431.464
422.967
412.773
400.958
387.667
373.094
357.474
341.068
324.143
306.967
289.782
272.82
256.277
240.323
225.094
210.697
197.206
184.673
173.123
162.561
152.98
144.356
136.656
129.831
123.83
118.597
114.088
110.245
106.964
104.258
442.768
442.865
442.973
443.005
442.82
442.244
441.055
439.023
435.907
431.509
425.662
418.275
409.31
398.804
386.861
373.632
359.314
344.128
328.316
312.118
295.767
279.486
263.468
247.888
232.896
218.6
205.098
192.454
180.709
169.889
159.999
151.028
142.957
135.755
129.379
123.779
118.911
114.734
111.193
108.197
433.852
433.946
434.063
434.123
434.022
433.602
432.678
431.038
428.469
424.775
419.792
413.413
405.582
396.303
385.637
373.702
360.656
346.686
332
316.815
301.348
285.807
270.388
255.258
240.578
226.459
213.016
200.326
188.445
177.416
167.254
157.966
149.544
141.974
135.222
129.251
124.018
119.484
115.611
112.365
425.275
425.366
425.489
425.573
425.538
425.25
424.547
423.245
421.151
418.078
413.87
408.409
401.615
393.474
384.015
373.318
361.507
348.734
335.178
321.03
306.487
291.742
276.987
262.381
248.083
234.222
220.912
208.244
196.29
185.104
174.716
165.148
156.402
148.479
141.36
135.014
129.413
124.516
120.287
116.71
417.013
417.103
417.228
417.335
417.351
417.172
416.653
415.639
413.956
411.431
407.912
403.276
397.434
390.344
382.015
372.496
361.872
350.272
337.84
324.741
311.154
297.252
283.212
269.199
255.358
241.83
228.728
216.157
204.197
192.912
182.35
172.545
163.511
155.259
147.784
141.072
135.099
129.838
125.247
121.312
409.038
409.128
409.255