/*--------------------------------*- C++ -*----------------------------------*\
| =========                 |                                                 |
| \\      /  F ield         | OpenFOAM: The Open Source CFD Toolbox           |
|  \\    /   O peration     | Version:  2506                                  |
|   \\  /    A nd           | Website:  www.openfoam.com                      |
|    \\/     M anipulation  |                                                 |
\*---------------------------------------------------------------------------*/
FoamFile
{
    version     2.0;
    format      ascii;
    arch        "LSB;label=32;scalar=64";
    class       volScalarField;
    location    "10";
    object      R;
}
// * * * * * * * * * * * * * * * * * * * * * * * * * * * * * * * * * * * * * //

dimensions      [0 2 -3 0 0 0 0];

internalField   nonuniform List<scalar> 
72100
(
-1.46656e-11
-1.60713e-12
8.80341e-12
6.34476e-12
-2.29501e-11
3.24159e-12
-1.23393e-11
-1.19209e-11
-8.82247e-12
-3.6283e-12
-9.46068e-12
-1.37365e-11
-1.03746e-11
-1.33626e-11
-4.69578e-13
-1.55719e-11
-1.07594e-11
4.96485e-12
-4.73956e-12
-1.93943e-11
-1.62331e-11
-1.52059e-11
-1.00742e-11
-8.61408e-12
-1.5779e-11
-1.66002e-11
-1.04857e-11
-1.34585e-11
-1.16997e-11
-1.04332e-12
-9.3297e-12
-8.68901e-12
-1.03394e-11
-3.84346e-12
-2.8951e-12
-1.9404e-12
-3.8149e-12
4.09562e-13
-2.16328e-12
9.92723e-13
-1.09566e-08
-1.12844e-08
-1.11258e-08
-1.09517e-08
-1.07626e-08
-1.0571e-08
-1.03728e-08
-1.01622e-08
-9.94618e-09
-9.72536e-09
-9.49863e-09
-9.26579e-09
-9.02929e-09
-8.78962e-09
-8.54316e-09
-8.29176e-09
-8.02959e-09
-7.77718e-09
-7.51229e-09
-7.23905e-09
-6.96534e-09
-6.68645e-09
-6.40047e-09
-6.11755e-09
-5.82107e-09
-5.52518e-09
-5.22652e-09
-4.92124e-09
-4.61595e-09
-4.30651e-09
-3.99929e-09
-3.68721e-09
-3.38025e-09
-3.06467e-09
-2.76697e-09
-2.4666e-09
-2.18466e-09
-1.89639e-09
-1.65484e-09
-1.3776e-09
-4.90228e-08
-5.30444e-08
-5.26124e-08
-5.18822e-08
-5.105e-08
-5.0174e-08
-4.92392e-08
-4.83018e-08
-4.7326e-08
-4.63335e-08
-4.53036e-08
-4.42435e-08
-4.31681e-08
-4.20376e-08
-4.09159e-08
-3.97572e-08
-3.85994e-08
-3.73955e-08
-3.61803e-08
-3.49371e-08
-3.36619e-08
-3.23722e-08
-3.10765e-08
-2.97402e-08
-2.84075e-08
-2.70202e-08
-2.56417e-08
-2.42387e-08
-2.27996e-08
-2.13677e-08
-1.99135e-08
-1.84514e-08
-1.69877e-08
-1.55308e-08
-1.4106e-08
-1.26326e-08
-1.12979e-08
-9.82958e-09
-8.68058e-09
-7.20445e-09
-1.12205e-07
-1.29016e-07
-1.29159e-07
-1.27438e-07
-1.25321e-07
-1.23037e-07
-1.20735e-07
-1.18314e-07
-1.15842e-07
-1.13232e-07
-1.10608e-07
-1.0795e-07
-1.05165e-07
-1.02308e-07
-9.94248e-08
-9.64729e-08
-9.34996e-08
-9.04484e-08
-8.73297e-08
-8.42114e-08
-8.09657e-08
-7.77004e-08
-7.44048e-08
-7.1043e-08
-6.76086e-08
-6.41615e-08
-6.06297e-08
-5.71367e-08
-5.35684e-08
-4.9933e-08
-4.6367e-08
-4.27112e-08
-3.92135e-08
-3.5586e-08
-3.21654e-08
-2.85912e-08
-2.54933e-08
-2.19076e-08
-1.94293e-08
-1.57344e-08
-1.58368e-07
-1.94157e-07
-1.97277e-07
-1.95045e-07
-1.91984e-07
-1.88792e-07
-1.85265e-07
-1.81602e-07
-1.77885e-07
-1.74182e-07
-1.70254e-07
-1.66234e-07
-1.62165e-07
-1.58154e-07
-1.54014e-07
-1.49735e-07
-1.45307e-07
-1.40893e-07
-1.36314e-07
-1.31568e-07
-1.26945e-07
-1.21969e-07
-1.17006e-07
-1.11884e-07
-1.06861e-07
-1.01592e-07
-9.62694e-08
-9.06926e-08
-8.52186e-08
-7.97144e-08
-7.39725e-08
-6.82843e-08
-6.25079e-08
-5.66967e-08
-5.11922e-08
-4.52621e-08
-4.02935e-08
-3.41235e-08
-3.04067e-08
-2.37523e-08
-1.41925e-07
-1.86062e-07
-1.92542e-07
-1.90815e-07
-1.87475e-07
-1.83786e-07
-1.80064e-07
-1.76623e-07
-1.72813e-07
-1.69213e-07
-1.65782e-07
-1.62169e-07
-1.58665e-07
-1.55042e-07
-1.51447e-07
-1.47886e-07
-1.44261e-07
-1.40559e-07
-1.36979e-07
-1.32965e-07
-1.28704e-07
-1.24624e-07
-1.20327e-07
-1.16172e-07
-1.11578e-07
-1.07059e-07
-1.02401e-07
-9.76714e-08
-9.26705e-08
-8.74664e-08
-8.23888e-08
-7.69264e-08
-7.14932e-08
-6.56993e-08
-6.01916e-08
-5.38111e-08
-4.86838e-08
-4.15069e-08
-3.77907e-08
-2.88232e-08
-9.15906e-08
-1.26786e-07
-1.31073e-07
-1.29692e-07
-1.26338e-07
-1.23032e-07
-1.18574e-07
-1.14209e-07
-1.10823e-07
-1.0779e-07
-1.048e-07
-1.0226e-07
-9.96768e-08
-9.75867e-08
-9.5445e-08
-9.36451e-08
-9.18541e-08
-8.97337e-08
-8.76361e-08
-8.58228e-08
-8.3454e-08
-8.09246e-08
-7.83993e-08
-7.61602e-08
-7.38192e-08
-7.14234e-08
-6.91257e-08
-6.64175e-08
-6.3834e-08
-6.13268e-08
-5.85969e-08
-5.58081e-08
-5.31329e-08
-4.98563e-08
-4.72434e-08
-4.33491e-08
-4.08686e-08
-3.54506e-08
-3.41596e-08
-2.59813e-08
-4.40052e-08
-5.97469e-08
-5.46477e-08
-5.2379e-08
-5.07707e-08
-4.96119e-08
-4.39457e-08
-3.93908e-08
-3.62215e-08
-3.38074e-08
-3.19563e-08
-3.06252e-08
-2.99733e-08
-2.90891e-08
-2.88951e-08
-2.81791e-08
-2.77257e-08
-2.72636e-08
-2.66749e-08
-2.23723e-08
-1.98041e-08
-1.91884e-08
-1.82752e-08
-1.76836e-08
-1.74207e-08
-1.67736e-08
-1.60623e-08
-1.58573e-08
-1.53438e-08
-1.49704e-08
-1.51231e-08
-1.49592e-08
-1.49157e-08
-1.49157e-08
-1.55381e-08
-1.48492e-08
-1.62006e-08
-1.3943e-08
-1.70596e-08
-1.12812e-08
-6.19328e-09
-1.05646e-08
-8.74334e-09
-3.85119e-09
3.06481e-09
9.60316e-09
1.41619e-08
1.77907e-08
2.01223e-08
2.20115e-08
2.25722e-08
2.25995e-08
2.24563e-08
2.21896e-08
2.20278e-08
2.16867e-08
2.11305e-08
2.07138e-08
2.00954e-08
3.00654e-08
3.38873e-08
3.25234e-08
3.12079e-08
2.99114e-08
3.43311e-08
4.02332e-08
4.47062e-08
4.37992e-08
4.21809e-08
4.02683e-08
3.82368e-08
3.60213e-08
3.31584e-08
3.08979e-08
2.69304e-08
2.47467e-08
1.93691e-08
1.85015e-08
1.06532e-08
1.40075e-08
-4.29944e-09
-4.06646e-09
3.94972e-09
1.42031e-08
2.65356e-08
3.80531e-08
4.7625e-08
5.44486e-08
5.9807e-08
6.25872e-08
6.4164e-08
6.45115e-08
6.44388e-08
6.37584e-08
6.26888e-08
6.16904e-08
6.05498e-08
5.93326e-08
5.7922e-08
5.34824e-08
5.06338e-08
4.85898e-08
4.70591e-08
4.53745e-08
5.77232e-08
7.2285e-08
8.57443e-08
8.86975e-08
9.12161e-08
9.36771e-08
9.65405e-08
9.85757e-08
9.30758e-08
8.73085e-08
7.98131e-08
7.43581e-08
6.47624e-08
6.10012e-08
4.72645e-08
4.82828e-08
6.65421e-10
6.09651e-09
2.03906e-08
3.88591e-08
6.04986e-08
7.93205e-08
9.61304e-08
1.0782e-07
1.16393e-07
1.21321e-07
1.23917e-07
1.24753e-07
1.2411e-07
1.22723e-07
1.20953e-07
1.18941e-07
1.16834e-07
1.14267e-07
1.11911e-07
1.09679e-07
1.06711e-07
1.04172e-07
1.00845e-07
9.80572e-08
9.00088e-08
8.16236e-08
7.65028e-08
8.7861e-08
1.00812e-07
1.15846e-07
1.30354e-07
1.43632e-07
1.40559e-07
1.40205e-07
1.3714e-07
1.38607e-07
1.24054e-07
1.15905e-07
9.60857e-08
9.42108e-08
3.394e-09
1.48687e-08
4.20667e-08
7.21902e-08
1.04309e-07
1.34404e-07
1.58682e-07
1.7902e-07
1.89908e-07
1.98849e-07
2.03688e-07
2.04561e-07
2.02778e-07
2.01092e-07
1.98424e-07
1.94598e-07
1.91998e-07
1.87161e-07
1.84738e-07
1.8079e-07
1.75408e-07
1.71392e-07
1.67524e-07
1.63163e-07
1.58094e-07
1.52696e-07
1.45951e-07
1.34648e-07
1.30387e-07
1.31615e-07
1.33914e-07
1.37274e-07
1.44851e-07
1.56933e-07
1.64368e-07
1.80572e-07
1.66986e-07
1.72103e-07
1.50505e-07
1.54549e-07
7.05587e-09
2.90825e-08
6.04429e-08
1.07091e-07
1.55867e-07
2.02863e-07
2.38401e-07
2.66538e-07
2.87939e-07
2.97464e-07
3.03116e-07
3.04179e-07
3.07156e-07
3.02716e-07
2.988e-07
2.95615e-07
2.87582e-07
2.85093e-07
2.76607e-07
2.69904e-07
2.66927e-07
2.60784e-07
2.54198e-07
2.47002e-07
2.41143e-07
2.33168e-07
2.25429e-07
2.17227e-07
2.05876e-07
1.94058e-07
1.89563e-07
1.86126e-07
1.80449e-07
1.76395e-07
1.67285e-07
1.6753e-07
1.61384e-07
1.90626e-07
1.67981e-07
2.06316e-07
1.10229e-08
3.80942e-08
9.11351e-08
1.52986e-07
2.21782e-07
2.82941e-07
3.39513e-07
3.78348e-07
4.04944e-07
4.22769e-07
4.30104e-07
4.37678e-07
4.30594e-07
4.29872e-07
4.23894e-07
4.15909e-07
4.1328e-07
4.0269e-07
3.97259e-07
3.91193e-07
3.79521e-07
3.70588e-07
3.60253e-07
3.53014e-07
3.43078e-07
3.3501e-07
3.2545e-07
3.13651e-07
3.00555e-07
2.89793e-07
2.70993e-07
2.589e-07
2.46351e-07
2.37016e-07
2.21481e-07
2.12695e-07
1.89944e-07
1.90927e-07
1.52763e-07
2.10403e-07
2.11179e-08
6.22197e-08
1.3164e-07
2.17745e-07
3.06606e-07
3.91239e-07
4.58465e-07
5.1056e-07
5.5027e-07
5.70921e-07
5.83559e-07
5.85033e-07
5.88116e-07
5.79464e-07
5.75385e-07
5.66525e-07
5.56257e-07
5.49068e-07
5.36027e-07
5.26861e-07
5.16907e-07
5.0761e-07
4.97185e-07
4.83244e-07
4.72723e-07
4.57995e-07
4.43112e-07
4.31896e-07
4.18958e-07
3.98858e-07
3.85043e-07
3.64732e-07
3.42206e-07
3.20714e-07
2.99105e-07
2.81864e-07
2.51426e-07
2.41384e-07
1.95435e-07
2.14461e-07
4.74785e-08
1.13267e-07
1.97198e-07
2.98026e-07
4.15664e-07
5.18256e-07
5.98821e-07
6.6818e-07
7.10478e-07
7.44677e-07
7.59678e-07
7.63431e-07
7.61096e-07
7.61722e-07
7.47881e-07
7.424e-07
7.29249e-07
7.17739e-07
7.07184e-07
6.90681e-07
6.78814e-07
6.62935e-07
6.51095e-07
6.37859e-07
6.2099e-07
6.05413e-07
5.91848e-07
5.71703e-07
5.51081e-07
5.33128e-07
5.10922e-07
4.90913e-07
4.65456e-07
4.41165e-07
4.0869e-07
3.78754e-07
3.4454e-07
3.17738e-07
2.68105e-07
2.64801e-07
4.81366e-08
1.38539e-07
2.43252e-07
3.88245e-07
5.27928e-07
6.62901e-07
7.75929e-07
8.56828e-07
9.13564e-07
9.38109e-07
9.55528e-07
9.64712e-07
9.66114e-07
9.5447e-07
9.51541e-07
9.34553e-07
9.21546e-07
9.06838e-07
8.92979e-07
8.78541e-07
8.63381e-07
8.49307e-07
8.29132e-07
8.13053e-07
7.93307e-07
7.74943e-07
7.52376e-07
7.30281e-07
7.12525e-07
6.89337e-07
6.61915e-07
6.30729e-07
6.04215e-07
5.7361e-07
5.4074e-07
5.09701e-07
4.63241e-07
4.34289e-07
3.78888e-07
3.47338e-07
5.87119e-08
1.62353e-07
2.94166e-07
4.55797e-07
6.37382e-07
8.04617e-07
9.42882e-07
1.04293e-06
1.11339e-06
1.1667e-06
1.1844e-06
1.19045e-06
1.18415e-06
1.17271e-06
1.15753e-06
1.14657e-06
1.1321e-06
1.11632e-06
1.099e-06
1.08316e-06
1.06406e-06
1.04092e-06
1.02495e-06
1.00192e-06
9.81398e-07
9.6185e-07
9.38059e-07
9.17958e-07
8.85034e-07
8.57354e-07
8.27949e-07
8.02226e-07
7.63696e-07
7.27411e-07
6.84364e-07
6.4695e-07
5.97717e-07
5.56238e-07
4.91464e-07
4.67982e-07
6.04828e-08
1.92436e-07
3.44657e-07
5.43415e-07
7.55145e-07
9.4701e-07
1.11315e-06
1.24056e-06
1.33227e-06
1.38222e-06
1.41486e-06
1.42689e-06
1.42342e-06
1.41677e-06
1.40033e-06
1.37952e-06
1.36043e-06
1.34236e-06
1.32053e-06
1.29732e-06
1.27942e-06
1.26007e-06
1.23704e-06
1.21246e-06
1.19288e-06
1.16388e-06
1.13848e-06
1.10662e-06
1.08051e-06
1.04929e-06
1.01684e-06
9.76284e-07
9.40118e-07
8.98552e-07
8.53834e-07
8.06561e-07
7.49112e-07
7.04892e-07
6.27659e-07
5.92723e-07
7.48111e-08
2.10286e-07
3.89755e-07
6.16353e-07
8.57777e-07
1.09292e-06
1.28676e-06
1.43753e-06
1.54145e-06
1.60622e-06
1.64607e-06
1.66124e-06
1.66193e-06
1.65393e-06
1.63986e-06
1.61569e-06
1.59262e-06
1.5719e-06
1.5534e-06
1.53088e-06
1.50797e-06
1.48388e-06
1.45895e-06
1.43597e-06
1.40283e-06
1.38086e-06
1.35096e-06
1.31981e-06
1.28935e-06
1.25429e-06
1.21326e-06
1.17681e-06
1.12981e-06
1.08544e-06
1.03198e-06
9.8149e-07
9.14862e-07
8.64526e-07
7.79301e-07
7.35814e-07
8.22252e-08
2.29967e-07
4.27934e-07
6.84485e-07
9.70888e-07
1.23078e-06
1.45274e-06
1.62667e-06
1.75188e-06
1.83555e-06
1.87923e-06
1.90268e-06
1.90496e-06
1.89318e-06
1.87463e-06
1.85896e-06
1.83738e-06
1.80545e-06
1.77872e-06
1.76055e-06
1.73491e-06
1.70917e-06
1.68241e-06
1.65775e-06
1.63228e-06
1.59914e-06
1.56812e-06
1.5388e-06
1.49801e-06
1.46145e-06
1.42459e-06
1.37938e-06
1.33399e-06
1.28584e-06
1.22607e-06
1.16969e-06
1.10079e-06
1.03812e-06
9.44623e-07
8.9502e-07
8.06084e-08
2.48959e-07
4.67676e-07
7.56221e-07
1.06282e-06
1.35846e-06
1.61234e-06
1.81337e-06
1.95242e-06
2.04912e-06
2.10425e-06
2.13284e-06
2.14178e-06
2.13412e-06
2.12214e-06
2.09477e-06
2.07151e-06
2.04587e-06
2.02251e-06
1.99399e-06
1.96552e-06
1.94122e-06
1.91578e-06
1.88294e-06
1.85669e-06
1.82505e-06
1.79257e-06
1.75611e-06
1.72329e-06
1.68535e-06
1.64136e-06
1.59808e-06
1.54633e-06
1.49218e-06
1.43393e-06
1.37371e-06
1.29541e-06
1.22922e-06
1.125e-06
1.07098e-06
9.26598e-08
2.62178e-07
5.04202e-07
8.14405e-07
1.15485e-06
1.48449e-06
1.76589e-06
1.98538e-06
2.14636e-06
2.25212e-06
2.32049e-06
2.3502e-06
2.36244e-06
2.36029e-06
2.34091e-06
2.32785e-06
2.29919e-06
2.27288e-06
2.23829e-06
2.21549e-06
2.18794e-06
2.16523e-06
2.1346e-06
2.10735e-06
2.07642e-06
2.04407e-06
2.01098e-06
1.97966e-06
1.93975e-06
1.89846e-06
1.85423e-06
1.80765e-06
1.75571e-06
1.70429e-06
1.64002e-06
1.5741e-06
1.49413e-06
1.43001e-06
1.31778e-06
1.25466e-06
9.21703e-08
2.7447e-07
5.28202e-07
8.61975e-07
1.23839e-06
1.5869e-06
1.89428e-06
2.13578e-06
2.31865e-06
2.44603e-06
2.51964e-06
2.5638e-06
2.57896e-06
2.57855e-06
2.56768e-06
2.54239e-06
2.51731e-06
2.49023e-06
2.46521e-06
2.43028e-06
2.41204e-06
2.37979e-06
2.35541e-06
2.32331e-06
2.29476e-06
2.26527e-06
2.23146e-06
2.1935e-06
2.15694e-06
2.11537e-06
2.07459e-06
2.02782e-06
1.97578e-06
1.91878e-06
1.85207e-06
1.7923e-06
1.70602e-06
1.63144e-06
1.51748e-06
1.44954e-06
9.28343e-08
2.8679e-07
5.54408e-07
9.12926e-07
1.29461e-06
1.6785e-06
2.00887e-06
2.28083e-06
2.47573e-06
2.61204e-06
2.69959e-06
2.75472e-06
2.77027e-06
2.7724e-06
2.7625e-06
2.74549e-06
2.71988e-06
2.69235e-06
2.66703e-06
2.63708e-06
2.60559e-06
2.58322e-06
2.55405e-06
2.52867e-06
2.4995e-06
2.46271e-06
2.43268e-06
2.40163e-06
2.36552e-06
2.32459e-06
2.28102e-06
2.23544e-06
2.18786e-06
2.13171e-06
2.0665e-06
2.00182e-06
1.91675e-06
1.84564e-06
1.72563e-06
1.65589e-06
1.04029e-07
2.92526e-07
5.71349e-07
9.42099e-07
1.36394e-06
1.76453e-06
2.11683e-06
2.39817e-06
2.61488e-06
2.76341e-06
2.87011e-06
2.9137e-06
2.95214e-06
2.95664e-06
2.944e-06
2.93198e-06
2.91057e-06
2.88287e-06
2.84915e-06
2.82265e-06
2.80128e-06
2.76991e-06
2.74372e-06
2.71812e-06
2.68492e-06
2.66341e-06
2.62948e-06
2.59235e-06
2.55712e-06
2.52454e-06
2.4853e-06
2.44152e-06
2.38621e-06
2.33602e-06
2.27572e-06
2.2104e-06
2.13034e-06
2.05279e-06
1.93641e-06
1.86565e-06
1.01412e-07
2.99414e-07
5.86366e-07
9.6599e-07
1.39584e-06
1.82054e-06
2.19196e-06
2.50046e-06
2.73714e-06
2.89792e-06
3.00009e-06
3.0791e-06
3.09856e-06
3.11144e-06
3.11424e-06
3.08956e-06
3.06921e-06
3.05041e-06
3.0207e-06
2.99062e-06
2.96369e-06
2.94428e-06
2.91728e-06
2.89165e-06
2.86628e-06
2.83766e-06
2.80836e-06
2.7798e-06
2.74565e-06
2.7115e-06
2.66756e-06
2.62957e-06
2.58332e-06
2.53291e-06
2.47587e-06
2.41731e-06
2.32829e-06
2.26647e-06
2.14348e-06
2.07352e-06
9.52403e-08
3.00771e-07
5.94135e-07
9.94592e-07
1.43792e-06
1.87338e-06
2.26633e-06
2.58549e-06
2.82111e-06
3.00929e-06
3.12492e-06
3.19215e-06
3.24563e-06
3.25654e-06
3.2526e-06
3.24356e-06
3.22329e-06
3.19573e-06
3.17156e-06
3.14628e-06
3.11824e-06
3.09479e-06
3.07617e-06
3.04639e-06
3.02598e-06
2.99768e-06
2.96996e-06
2.94631e-06
2.9141e-06
2.88193e-06
2.84799e-06
2.80558e-06
2.76657e-06
2.72288e-06
2.66369e-06
2.60701e-06
2.53476e-06
2.46272e-06
2.34679e-06
2.28743e-06
1.04855e-07
3.00245e-07
5.9797e-07
1.00634e-06
1.45961e-06
1.90791e-06
2.30955e-06
2.64215e-06
2.91113e-06
3.08961e-06
3.22531e-06
3.30895e-06
3.34411e-06
3.37374e-06
3.37207e-06
3.36965e-06
3.35066e-06
3.32336e-06
3.29963e-06
3.27489e-06
3.247e-06
3.22854e-06
3.20182e-06
3.18972e-06
3.16139e-06
3.13819e-06
3.11613e-06
3.08617e-06
3.06413e-06
3.03398e-06
3.00698e-06
2.97524e-06
2.93287e-06
2.89398e-06
2.84303e-06
2.79505e-06
2.72236e-06
2.66603e-06
2.55218e-06
2.49091e-06
1.02992e-07
3.03007e-07
5.96943e-07
1.00457e-06
1.47123e-06
1.92937e-06
2.34746e-06
2.69157e-06
2.95582e-06
3.1658e-06
3.29973e-06
3.38565e-06
3.44679e-06
3.46542e-06
3.47726e-06
3.46171e-06
3.44966e-06
3.43757e-06
3.41848e-06
3.38485e-06
3.3664e-06
3.34803e-06
3.33122e-06
3.30249e-06
3.28859e-06
3.26606e-06
3.24547e-06
3.22543e-06
3.19742e-06
3.1742e-06
3.15029e-06
3.12225e-06
3.08801e-06
3.05043e-06
3.00863e-06
2.96373e-06
2.89788e-06
2.84929e-06
2.73927e-06
2.69276e-06
9.52022e-08
2.98499e-07
6.04021e-07
1.00599e-06
1.47201e-06
1.94323e-06
2.35897e-06
2.71833e-06
3.00315e-06
3.20602e-06
3.35977e-06
3.45782e-06
3.51901e-06
3.54726e-06
3.55726e-06
3.55907e-06
3.54774e-06
3.52746e-06
3.49995e-06
3.48657e-06
3.45879e-06
3.43663e-06
3.42141e-06
3.40701e-06
3.3891e-06
3.37296e-06
3.35368e-06
3.33579e-06
3.32207e-06
3.30149e-06
3.27314e-06
3.24938e-06
3.22728e-06
3.19832e-06
3.15856e-06
3.12791e-06
3.06887e-06
3.02253e-06
2.92678e-06
2.88422e-06
9.16543e-08
2.87022e-07
5.85809e-07
1.0022e-06
1.46965e-06
1.93878e-06
2.37114e-06
2.73496e-06
3.02712e-06
3.23798e-06
3.39369e-06
3.50503e-06
3.56655e-06
3.60496e-06
3.62338e-06
3.62293e-06
3.61359e-06
3.59917e-06
3.5775e-06
3.55525e-06
3.54301e-06
3.52606e-06
3.5067e-06
3.49846e-06
3.47682e-06
3.46245e-06
3.44896e-06
3.43708e-06
3.41337e-06
3.40023e-06
3.38695e-06
3.36743e-06
3.34575e-06
3.32636e-06
3.29313e-06
3.26595e-06
3.21863e-06
3.18836e-06
3.09483e-06
3.06729e-06
1.01409e-07
2.92291e-07
5.87555e-07
9.87211e-07
1.45674e-06
1.9335e-06
2.36485e-06
2.73836e-06
3.0286e-06
3.26377e-06
3.42755e-06
3.53288e-06
3.60602e-06
3.64938e-06
3.67148e-06
3.6736e-06
3.66668e-06
3.65357e-06
3.64353e-06
3.62131e-06
3.59498e-06
3.58456e-06
3.57562e-06
3.55429e-06
3.54833e-06
3.53958e-06
3.5275e-06
3.51289e-06
3.50927e-06
3.49371e-06
3.47607e-06
3.47245e-06
3.45151e-06
3.43382e-06
3.41802e-06
3.39426e-06
3.35203e-06
3.32887e-06
3.24872e-06
3.2368e-06
9.48168e-08
2.81018e-07
5.67487e-07
9.71795e-07
1.43639e-06
1.91136e-06
2.3529e-06
2.71564e-06
3.02487e-06
3.2558e-06
3.42972e-06
3.54838e-06
3.63476e-06
3.68168e-06
3.69655e-06
3.71319e-06
3.71291e-06
3.69665e-06
3.68776e-06
3.66645e-06
3.65083e-06
3.63576e-06
3.62345e-06
3.62242e-06
3.60797e-06
3.59587e-06
3.59041e-06
3.5775e-06
3.56739e-06
3.56337e-06
3.56134e-06
3.54445e-06
3.54481e-06
3.53628e-06
3.51485e-06
3.50679e-06
3.4759e-06
3.46958e-06
3.39948e-06
3.39426e-06
8.21528e-08
2.71158e-07
5.62159e-07
9.56956e-07
1.42346e-06
1.88874e-06
2.32666e-06
2.70882e-06
3.00994e-06
3.25529e-06
3.42069e-06
3.55483e-06
3.63347e-06
3.69305e-06
3.72805e-06
3.7361e-06
3.72772e-06
3.72974e-06
3.71041e-06
3.70152e-06
3.68134e-06
3.67725e-06
3.66583e-06
3.65114e-06
3.64814e-06
3.64186e-06
3.63293e-06
3.636e-06
3.63142e-06
3.6254e-06
3.62236e-06
3.62594e-06
3.61301e-06
3.61465e-06
3.60709e-06
3.60974e-06
3.58698e-06
3.58346e-06
3.52761e-06
3.54289e-06
7.75143e-08
2.69496e-07
5.43774e-07
9.34823e-07
1.38399e-06
1.8566e-06
2.29418e-06
2.67808e-06
2.98528e-06
3.22691e-06
3.41375e-06
3.54328e-06
3.63795e-06
3.68562e-06
3.72741e-06
3.73944e-06
3.75527e-06
3.74746e-06
3.73533e-06
3.72205e-06
3.70783e-06
3.68865e-06
3.68933e-06
3.68548e-06
3.67816e-06
3.67824e-06
3.67503e-06
3.67032e-06
3.66819e-06
3.66913e-06
3.67276e-06
3.67127e-06
3.67521e-06
3.68115e-06
3.68323e-06
3.68519e-06
3.67459e-06
3.68802e-06
3.63913e-06
3.66885e-06
9.10474e-08
2.60223e-07
5.28892e-07
9.02936e-07
1.35324e-06
1.82116e-06
2.26234e-06
2.63367e-06
2.95513e-06
3.19838e-06
3.38641e-06
3.524e-06
3.61836e-06
3.69398e-06
3.72086e-06
3.75092e-06
3.74738e-06
3.74776e-06
3.74199e-06
3.73483e-06
3.72135e-06
3.71811e-06
3.70382e-06
3.70161e-06
3.7003e-06
3.6962e-06
3.69465e-06
3.69636e-06
3.70478e-06
3.70765e-06
3.71323e-06
3.72317e-06
3.73082e-06
3.74084e-06
3.73995e-06
3.76051e-06
3.75706e-06
3.77647e-06
3.74118e-06
3.7848e-06
7.55777e-08
2.46742e-07
5.04479e-07
8.79316e-07
1.32573e-06
1.77808e-06
2.20717e-06
2.5928e-06
2.91494e-06
3.15579e-06
3.35241e-06
3.49558e-06
3.59317e-06
3.66263e-06
3.71056e-06
3.73556e-06
3.75372e-06
3.75762e-06
3.74839e-06
3.73556e-06
3.72879e-06
3.71509e-06
3.71815e-06
3.71584e-06
3.71033e-06
3.71166e-06
3.7164e-06
3.71884e-06
3.71929e-06
3.72902e-06
3.73664e-06
3.74538e-06
3.76034e-06
3.77877e-06
3.79506e-06
3.81634e-06
3.81992e-06
3.8562e-06
3.83053e-06
3.89084e-06
7.64238e-08
2.4053e-07
5.00688e-07
8.58753e-07
1.28496e-06
1.73908e-06
2.1654e-06
2.54386e-06
2.85175e-06
3.12391e-06
3.31645e-06
3.46299e-06
3.5665e-06
3.63827e-06
3.69328e-06
3.72272e-06
3.73667e-06
3.73598e-06
3.73993e-06
3.7359e-06
3.71839e-06
3.71123e-06
3.71517e-06
3.7135e-06
3.71455e-06
3.71152e-06
3.7175e-06
3.72591e-06
3.73214e-06
3.74775e-06
3.75222e-06
3.77723e-06
3.78547e-06
3.80761e-06
3.82834e-06
3.85548e-06
3.87283e-06
3.9135e-06
3.9039e-06
3.97733e-06
6.77154e-08
2.28676e-07
4.64217e-07
8.31143e-07
1.24743e-06
1.68866e-06
2.11313e-06
2.49864e-06
2.81852e-06
3.06598e-06
3.25788e-06
3.41971e-06
3.5346e-06
3.61122e-06
3.65878e-06
3.69656e-06
3.7148e-06
3.72138e-06
3.70549e-06
3.65832e-06
3.66769e-06
3.70713e-06
3.70488e-06
3.69943e-06
3.71212e-06
3.71545e-06
3.71652e-06
3.72641e-06
3.73915e-06
3.74617e-06
3.76714e-06
3.77922e-06
3.80832e-06
3.83671e-06
3.85629e-06
3.89683e-06
3.91177e-06
3.96812e-06
3.95878e-06
4.04798e-06
6.81285e-08
2.20595e-07
4.61876e-07
7.8452e-07
1.20338e-06
1.64686e-06
2.05988e-06
2.43465e-06
2.74879e-06
3.0057e-06
3.22523e-06
3.36369e-06
3.47782e-06
3.56669e-06
3.63667e-06
3.66495e-06
3.58576e-06
3.38237e-06
3.25339e-06
3.19979e-06
3.174e-06
3.19151e-06
3.24436e-06
3.32232e-06
3.40133e-06
3.51074e-06
3.63814e-06
3.71991e-06
3.7294e-06
3.74789e-06
3.77062e-06
3.79361e-06
3.81098e-06
3.83802e-06
3.86967e-06
3.91345e-06
3.94151e-06
4.00453e-06
4.01423e-06
4.11081e-06
6.55261e-08
2.19645e-07
4.32813e-07
7.62576e-07
1.16223e-06
1.58281e-06
2.01053e-06
2.3759e-06
2.70048e-06
2.95678e-06
3.15259e-06
3.31977e-06
3.44391e-06
3.52863e-06
3.58297e-06
3.63013e-06
3.26881e-06
3.04173e-06
2.90001e-06
2.81602e-06
2.79166e-06
2.79844e-06
2.82943e-06
2.88014e-06
2.9479e-06
3.0327e-06
3.13428e-06
3.26169e-06
3.40692e-06
3.57995e-06
3.75728e-06
3.78293e-06
3.8165e-06
3.85498e-06
3.88492e-06
3.92784e-06
3.9638e-06
4.0359e-06
4.04085e-06
4.16326e-06
6.14369e-08
1.91216e-07
4.08876e-07
7.305e-07
1.11469e-06
1.53956e-06
1.93923e-06
2.32063e-06
2.63137e-06
2.898e-06
3.10954e-06
3.25965e-06
3.38157e-06
3.4708e-06
3.54248e-06
3.41531e-06
3.02993e-06
2.76696e-06
2.6185e-06
2.5182e-06
2.47307e-06
2.45902e-06
2.48139e-06
2.52293e-06
2.58056e-06
2.65335e-06
2.73598e-06
2.8321e-06
2.96395e-06
3.10417e-06
3.274e-06
3.49136e-06
3.73725e-06
3.83823e-06
3.88082e-06
3.93571e-06
3.97566e-06
4.04418e-06
4.07835e-06
4.19726e-06
4.62844e-08
1.93541e-07
4.06013e-07
7.01243e-07
1.08591e-06
1.48577e-06
1.89782e-06
2.24754e-06
2.56941e-06
2.8374e-06
3.03153e-06
3.20619e-06
3.32836e-06
3.42899e-06
3.50196e-06
3.25816e-06
2.85496e-06
2.58411e-06
2.3914e-06
2.29411e-06
2.22729e-06
2.20689e-06
2.2156e-06
2.23697e-06
2.28118e-06
2.33862e-06
2.40522e-06
2.49877e-06
2.59243e-06
2.7145e-06
2.86611e-06
3.03541e-06
3.25331e-06
3.52598e-06
3.84774e-06
3.93204e-06
3.97575e-06
4.06657e-06
4.08382e-06
4.22275e-06
4.78023e-08
1.8165e-07
3.65963e-07
6.63982e-07
1.02176e-06
1.42715e-06
1.81728e-06
2.19459e-06
2.50128e-06
2.76331e-06
2.98664e-06
3.14249e-06
3.27583e-06
3.37659e-06
3.43299e-06
3.15751e-06
2.73619e-06
2.43031e-06
2.23994e-06
2.10718e-06
2.0397e-06
2.00646e-06
1.99704e-06
2.01739e-06
2.04862e-06
2.08221e-06
2.14567e-06
2.21127e-06
2.29238e-06
2.40396e-06
2.52486e-06
2.67565e-06
2.85374e-06
3.08117e-06
3.36376e-06
3.7215e-06
3.96893e-06
4.05665e-06
4.1e-06
4.24004e-06
6.00311e-08
1.77698e-07
3.59054e-07
6.37042e-07
9.90475e-07
1.37722e-06
1.76597e-06
2.11767e-06
2.4384e-06
2.7012e-06
2.91137e-06
3.08622e-06
3.2137e-06
3.30433e-06
3.39943e-06
3.11563e-06
2.64321e-06
2.33078e-06
2.12186e-06
1.98619e-06
1.89224e-06
1.84764e-06
1.83894e-06
1.83686e-06
1.85163e-06
1.89543e-06
1.93941e-06
1.99178e-06
2.06248e-06
2.14409e-06
2.2394e-06
2.37547e-06
2.5285e-06
2.71952e-06
2.94955e-06
3.27368e-06
3.64307e-06
4.05969e-06
4.0953e-06
4.25107e-06
3.75439e-08
1.50149e-07
3.41802e-07
5.94003e-07
9.4895e-07
1.3202e-06
1.70673e-06
2.06443e-06
2.37727e-06
2.62848e-06
2.8507e-06
3.01878e-06
3.15758e-06
3.25722e-06
3.32829e-06
3.1002e-06
2.62334e-06
2.2829e-06
2.0422e-06
1.88496e-06
1.79105e-06
1.73478e-06
1.70828e-06
1.70153e-06
1.71851e-06
1.73428e-06
1.76288e-06
1.8148e-06
1.87108e-06
1.93659e-06
2.03007e-06
2.12286e-06
2.25618e-06
2.42092e-06
2.62238e-06
2.88566e-06
3.21178e-06
3.6689e-06
4.08408e-06
4.24645e-06
4.1547e-08
1.57071e-07
3.11688e-07
5.81833e-07
8.93633e-07
1.26021e-06
1.624e-06
1.98545e-06
2.30585e-06
2.56587e-06
2.78463e-06
2.95031e-06
3.0876e-06
3.19631e-06
3.28095e-06
3.10412e-06
2.60402e-06
2.24784e-06
2.00111e-06
1.82148e-06
1.70939e-06
1.64885e-06
1.61715e-06
1.60038e-06
1.60213e-06
1.61561e-06
1.63914e-06
1.6743e-06
1.72003e-06
1.7725e-06
1.84455e-06
1.93526e-06
2.04034e-06
2.17911e-06
2.34774e-06
2.57565e-06
2.84197e-06
3.25398e-06
3.70297e-06
4.23806e-06
4.49752e-08
1.44441e-07
2.99579e-07
5.3245e-07
8.48108e-07
1.21305e-06
1.58269e-06
1.92027e-06
2.22468e-06
2.50485e-06
2.71462e-06
2.88778e-06
3.02188e-06
3.14446e-06
3.21716e-06
3.17064e-06
2.63202e-06
2.24785e-06
1.98171e-06
1.79953e-06
1.67298e-06
1.59417e-06
1.53946e-06
1.52236e-06
1.51383e-06
1.51792e-06
1.54038e-06
1.56624e-06
1.5956e-06
1.64874e-06
1.70095e-06
1.77713e-06
1.86335e-06
1.98468e-06
2.12489e-06
2.32351e-06
2.55469e-06
2.89744e-06
3.28461e-06
3.9522e-06
2.36418e-08
1.3966e-07
2.87591e-07
5.19574e-07
8.1642e-07
1.15602e-06
1.5115e-06
1.85223e-06
2.15905e-06
2.42001e-06
2.64991e-06
2.82896e-06
2.96583e-06
3.0652e-06
3.16823e-06
3.22078e-06
2.6793e-06
2.27827e-06
1.97844e-06
1.77382e-06
1.64012e-06
1.55603e-06
1.49781e-06
1.46349e-06
1.45355e-06
1.4572e-06
1.45913e-06
1.47084e-06
1.50491e-06
1.54708e-06
1.58819e-06
1.65639e-06
1.73179e-06
1.82354e-06
1.94065e-06
2.11494e-06
2.3036e-06
2.61257e-06
2.93249e-06
3.51993e-06
3.65661e-08
1.12069e-07
2.51821e-07
4.77916e-07
7.69301e-07
1.10678e-06
1.44719e-06
1.78171e-06
2.09381e-06
2.36238e-06
2.57511e-06
2.76171e-06
2.91036e-06
3.01268e-06
3.08999e-06
3.17215e-06
2.74846e-06
2.30945e-06
2.00271e-06
1.79373e-06
1.6327e-06
1.52811e-06
1.47323e-06
1.43752e-06
1.40676e-06
1.39046e-06
1.39817e-06
1.41955e-06
1.43974e-06
1.45664e-06
1.50045e-06
1.54584e-06
1.60407e-06
1.7004e-06
1.79678e-06
1.9363e-06
2.09894e-06
2.36689e-06
2.6377e-06
3.16311e-06
3.50705e-08
1.28877e-07
2.59412e-07
4.44391e-07
7.31911e-07
1.04513e-06
1.38286e-06
1.72325e-06
2.0154e-06
2.28655e-06
2.50415e-06
2.69288e-06
2.8287e-06
2.95366e-06
3.05338e-06
3.10758e-06
2.83786e-06
2.38741e-06
2.05038e-06
1.80286e-06
1.64881e-06
1.53076e-06
1.45189e-06
1.39987e-06
1.37484e-06
1.37029e-06
1.36411e-06
1.35554e-06
1.37471e-06
1.40269e-06
1.43199e-06
1.47272e-06
1.53035e-06
1.58649e-06
1.67728e-06
1.80518e-06
1.94075e-06
2.16907e-06
2.39848e-06
2.86219e-06
2.5708e-08
1.0363e-07
2.18513e-07
4.27865e-07
6.80068e-07
9.90568e-07
1.31937e-06
1.6438e-06
1.94489e-06
2.19995e-06
2.44044e-06
2.61779e-06
2.77318e-06
2.89609e-06
2.97406e-06
3.05778e-06
2.94508e-06
2.46121e-06
2.10292e-06
1.84224e-06
1.66459e-06
1.54777e-06
1.45545e-06
1.39464e-06
1.36156e-06
1.33115e-06
1.32529e-06
1.33593e-06
1.33004e-06
1.35107e-06
1.37367e-06
1.40646e-06
1.44903e-06
1.52025e-06
1.58005e-06
1.68629e-06
1.80434e-06
2.00797e-06
2.19762e-06
2.6052e-06
2.66509e-08
9.38735e-08
2.26514e-07
3.93035e-07
6.429e-07
9.45992e-07
1.26856e-06
1.58089e-06
1.88109e-06
2.15165e-06
2.36978e-06
2.55044e-06
2.70377e-06
2.82197e-06
2.93107e-06
2.9954e-06
3.05975e-06
2.55947e-06
2.17635e-06
1.91052e-06
1.70022e-06
1.55577e-06
1.4591e-06
1.39509e-06
1.34685e-06
1.32187e-06
1.30377e-06
1.2915e-06
1.3095e-06
1.31065e-06
1.33408e-06
1.35458e-06
1.38855e-06
1.43452e-06
1.49883e-06
1.59906e-06
1.6925e-06
1.87626e-06
2.024e-06
2.40082e-06
2.56739e-08
1.02575e-07
1.88845e-07
3.75025e-07
6.11875e-07
8.86483e-07
1.20511e-06
1.50038e-06
1.81073e-06
2.05755e-06
2.29316e-06
2.4945e-06
2.65148e-06
2.76736e-06
2.85797e-06
2.94831e-06
2.98882e-06
2.66743e-06
2.27444e-06
1.96392e-06
1.75582e-06
1.60072e-06
1.48623e-06
1.40358e-06
1.35465e-06
1.31592e-06
1.29146e-06
1.29061e-06
1.27846e-06
1.28989e-06
1.29318e-06
1.32419e-06
1.35056e-06
1.39835e-06
1.4416e-06
1.51898e-06
1.60183e-06
1.75959e-06
1.89826e-06
2.2267e-06
1.57866e-08
7.99342e-08
1.85666e-07
3.46127e-07
5.72484e-07
8.38686e-07
1.13481e-06
1.45619e-06
1.71811e-06
2.00103e-06
2.22891e-06
2.41389e-06
2.56901e-06
2.70399e-06
2.81284e-06
2.87754e-06
2.95221e-06
2.80229e-06
2.36183e-06
2.05057e-06
1.80914e-06
1.63147e-06
1.51086e-06
1.42937e-06
1.35654e-06
1.31824e-06
1.29254e-06
1.26795e-06
1.25829e-06
1.26252e-06
1.27345e-06
1.28705e-06
1.30679e-06
1.34266e-06
1.388e-06
1.45874e-06
1.52778e-06
1.67226e-06
1.77751e-06
2.07916e-06
2.03557e-08
7.09295e-08
1.6451e-07
3.13877e-07
5.18454e-07
7.97961e-07
1.07924e-06
1.36593e-06
1.66621e-06
1.92813e-06
2.13825e-06
2.3453e-06
2.50576e-06
2.64388e-06
2.73819e-06
2.83648e-06
2.89308e-06
2.9466e-06
2.49351e-06
2.14312e-06
1.88804e-06
1.69238e-06
1.55568e-06
1.44391e-06
1.37555e-06
1.32125e-06
1.28303e-06
1.27152e-06
1.26126e-06
1.2545e-06
1.26088e-06
1.2625e-06
1.28278e-06
1.30585e-06
1.34406e-06
1.40545e-06
1.4627e-06
1.5919e-06
1.68184e-06
1.96036e-06
2.52637e-08
7.67434e-08
1.50771e-07
2.91115e-07
5.10551e-07
7.39913e-07
1.02078e-06
1.31807e-06
1.59112e-06
1.84059e-06
2.09428e-06
2.27017e-06
2.44571e-06
2.5642e-06
2.68089e-06
2.76483e-06
2.84019e-06
2.89016e-06
2.61981e-06
2.23571e-06
1.95801e-06
1.75136e-06
1.59227e-06
1.47986e-06
1.40124e-06
1.35044e-06
1.30506e-06
1.27341e-06
1.25353e-06
1.2408e-06
1.23012e-06
1.25226e-06
1.2548e-06
1.28786e-06
1.30799e-06
1.36237e-06
1.4134e-06
1.52492e-06
1.59816e-06
1.84891e-06
1.8905e-09
6.8845e-08
1.46432e-07
2.71274e-07
4.52487e-07
7.00529e-07
9.63475e-07
1.23498e-06
1.51954e-06
1.78167e-06
1.99705e-06
2.21215e-06
2.36785e-06
2.51532e-06
2.62717e-06
2.70954e-06
2.78681e-06
2.84089e-06
2.75877e-06
2.3784e-06
2.05994e-06
1.83382e-06
1.66458e-06
1.53185e-06
1.4402e-06
1.35403e-06
1.31626e-06
1.27585e-06
1.25556e-06
1.23824e-06
1.24223e-06
1.22827e-06
1.24386e-06
1.2556e-06
1.27952e-06
1.33244e-06
1.3635e-06
1.47896e-06
1.53189e-06
1.7717e-06
2.04348e-08
4.55547e-08
1.27846e-07
2.58172e-07
4.26573e-07
6.62957e-07
9.18031e-07
1.18865e-06
1.44883e-06
1.70351e-06
1.93096e-06
2.12695e-06
2.3034e-06
2.44377e-06
2.55818e-06
2.65784e-06
2.73178e-06
2.79221e-06
2.84641e-06
2.49039e-06
2.16955e-06
1.91418e-06
1.71941e-06
1.57942e-06
1.46839e-06
1.39921e-06
1.33609e-06
1.28598e-06
1.25921e-06
1.24107e-06
1.22863e-06
1.22845e-06
1.22579e-06
1.24518e-06
1.25831e-06
1.30208e-06
1.33225e-06
1.42224e-06
1.47778e-06
1.69003e-06
2.25658e-08
5.3879e-08
1.21206e-07
2.23388e-07
3.96271e-07
5.89166e-07
8.46913e-07
1.10964e-06
1.38324e-06
1.62473e-06
1.85234e-06
2.07178e-06
2.22665e-06
2.38044e-06
2.49646e-06
2.59057e-06
2.67717e-06
2.7492e-06
2.80148e-06