/*--------------------------------*- C++ -*----------------------------------*\
| =========                 |                                                 |
| \\      /  F ield         | OpenFOAM: The Open Source CFD Toolbox           |
|  \\    /   O peration     | Version:  2506                                  |
|   \\  /    A nd           | Website:  www.openfoam.com                      |
|    \\/     M anipulation  |                                                 |
\*---------------------------------------------------------------------------*/
FoamFile
{
    version     2.0;
    format      ascii;
    arch        "LSB;label=32;scalar=64";
    class       volScalarField;
    location    "0";
    object      nut;
}
// * * * * * * * * * * * * * * * * * * * * * * * * * * * * * * * * * * * * * //

dimensions      [0 2 -1 0 0 0 0];

internalField   nonuniform List<scalar> 
72100
(
1.62767e-08
1.28439e-08
1.28576e-08
1.49865e-08
1.46892e-08
1.22157e-08
1.22705e-08
1.42804e-08
1.39041e-08
1.14885e-08
1.15837e-08
1.34445e-08
1.29831e-08
1.06345e-08
1.07507e-08
1.243e-08
1.18951e-08
9.63323e-09
9.75094e-09
1.12121e-08
1.06092e-08
8.45542e-09
8.55648e-09
9.75995e-09
9.10838e-09
7.1025e-09
7.17336e-09
8.08254e-09
7.39072e-09
5.57672e-09
5.61057e-09
6.19917e-09
5.49678e-09
3.95041e-09
3.95205e-09
4.23122e-09
3.58955e-09
2.4108e-09
2.3991e-09
2.44631e-09
1.84953e-07
1.52076e-07
1.52125e-07
1.71292e-07
1.68733e-07
1.45532e-07
1.46283e-07
1.65116e-07
1.62038e-07
1.39347e-07
1.40557e-07
1.57914e-07
1.54093e-07
1.31893e-07
1.33352e-07
1.48885e-07
1.4432e-07
1.22754e-07
1.24255e-07
1.37589e-07
1.32199e-07
1.11396e-07
1.12746e-07
1.23475e-07
1.17337e-07
9.76095e-08
9.86479e-08
1.06335e-07
9.9311e-08
8.09471e-08
8.15639e-08
8.57973e-08
7.79754e-08
6.1502e-08
6.16801e-08
6.24279e-08
5.41768e-08
4.06361e-08
4.04829e-08
3.81989e-08
1.87152e-07
1.52275e-07
1.52328e-07
1.73515e-07
1.70745e-07
1.45732e-07
1.46498e-07
1.67553e-07
1.64022e-07
1.39551e-07
1.40783e-07
1.60532e-07
1.56057e-07
1.32099e-07
1.33585e-07
1.51618e-07
1.46261e-07
1.22959e-07
1.24492e-07
1.40344e-07
1.34103e-07
1.11597e-07
1.12978e-07
1.2613e-07
1.1917e-07
9.78e-08
9.88656e-08
1.0875e-07
1.01021e-07
8.11195e-08
8.17565e-08
8.78238e-08
7.94782e-08
6.16456e-08
6.18352e-08
6.39373e-08
5.53656e-08
4.07409e-08
4.05907e-08
3.91287e-08
1.30324e-06
1.13398e-06
1.13293e-06
1.22992e-06
1.21394e-06
1.09113e-06
1.09419e-06
1.19388e-06
1.17544e-06
1.0542e-06
1.0595e-06
1.15372e-06
1.13031e-06
1.00935e-06
1.01582e-06
1.10226e-06
1.07348e-06
9.52768e-07
9.59369e-07
1.03544e-06
1.0004e-06
8.79765e-07
8.85426e-07
9.48146e-07
9.07029e-07
7.87521e-07
7.9131e-07
8.3693e-07
7.88176e-07
6.70624e-07
6.71785e-07
6.96041e-07
6.39334e-07
5.26349e-07
5.24664e-07
5.2517e-07
4.61532e-07
3.60982e-07
3.57113e-07
3.33818e-07
4.75686e-06
4.44714e-06
4.43939e-06
4.578e-06
4.5313e-06
4.30459e-06
4.30666e-06
4.46337e-06
4.41954e-06
4.19402e-06
4.19987e-06
4.34901e-06
4.29495e-06
4.06199e-06
4.06926e-06
4.20449e-06
4.13583e-06
3.89148e-06
3.89796e-06
4.01303e-06
3.92352e-06
3.66225e-06
3.66546e-06
3.75318e-06
3.64015e-06
3.3596e-06
3.35711e-06
3.40709e-06
3.26037e-06
2.95515e-06
2.94438e-06
2.94261e-06
2.75461e-06
2.42293e-06
2.40244e-06
2.33698e-06
2.1007e-06
1.76071e-06
1.73186e-06
1.58759e-06
1.16118e-05
1.13225e-05
1.13027e-05
1.13226e-05
1.12271e-05
1.10136e-05
1.10076e-05
1.10717e-05
1.10038e-05
1.07996e-05
1.07972e-05
1.08558e-05
1.078e-05
1.05605e-05
1.05576e-05
1.05956e-05
1.04973e-05
1.02494e-05
1.02426e-05
1.02475e-05
1.01073e-05
9.81188e-06
9.79713e-06
9.75618e-06
9.56373e-06
9.20751e-06
9.1804e-06
9.07466e-06
8.79899e-06
8.35494e-06
8.30914e-06
8.1116e-06
7.72354e-06
7.162e-06
7.09148e-06
6.77608e-06
6.23551e-06
5.5568e-06
5.45793e-06
4.97042e-06
1.16997e-05
1.13306e-05
1.1311e-05
1.14136e-05
1.13099e-05
1.10219e-05
1.10165e-05
1.11733e-05
1.10873e-05
1.08083e-05
1.08069e-05
1.09683e-05
1.08656e-05
1.05696e-05
1.0568e-05
1.07182e-05
1.05861e-05
1.0259e-05
1.02536e-05
1.03783e-05
1.02e-05
9.82194e-06
9.80873e-06
9.89187e-06
9.66047e-06
9.21794e-06
9.19232e-06
9.21067e-06
8.89931e-06
8.36555e-06
8.32099e-06
8.24147e-06
7.82524e-06
7.17237e-06
7.10267e-06
6.89144e-06
6.3332e-06
5.56618e-06
5.46758e-06
5.06036e-06
2.18432e-05
2.15963e-05
2.15656e-05
2.15096e-05
2.13241e-05
2.10666e-05
2.10497e-05
2.10675e-05
2.0957e-05
2.07471e-05
2.07364e-05
2.07846e-05
2.06787e-05
2.04582e-05
2.04463e-05
2.04933e-05
2.03618e-05
2.01005e-05
2.00829e-05
2.0092e-05
1.98729e-05
1.95113e-05
1.94806e-05
1.94127e-05
1.911e-05
1.86453e-05
1.85947e-05
1.84199e-05
1.79771e-05
1.73539e-05
1.72719e-05
1.69344e-05
1.62961e-05
1.54457e-05
1.53185e-05
1.47583e-05
1.38326e-05
1.27123e-05
1.25204e-05
1.16049e-05
3.44162e-05
3.4263e-05
3.42379e-05
3.40855e-05
3.38037e-05
3.35091e-05
3.34783e-05
3.33735e-05
3.32253e-05
3.30425e-05
3.30306e-05
3.29892e-05
3.28897e-05
3.27399e-05
3.27318e-05
3.26877e-05
3.25838e-05
3.2424e-05
3.24079e-05
3.23042e-05
3.21089e-05
3.18393e-05
3.17974e-05
3.16043e-05
3.13095e-05
3.08794e-05
3.08122e-05
3.04451e-05
2.99157e-05
2.92625e-05
2.91526e-05
2.85486e-05
2.77335e-05
2.67643e-05
2.65923e-05
2.56606e-05
2.44102e-05
2.30446e-05
2.27763e-05
2.12992e-05
4.88462e-05
4.88155e-05
4.87969e-05
4.85819e-05
4.82084e-05
4.78557e-05
4.78048e-05
4.75416e-05
4.73252e-05
4.71338e-05
4.71121e-05
4.69634e-05
4.68529e-05
4.67318e-05
4.67198e-05
4.65957e-05
4.65111e-05
4.64001e-05
4.63863e-05
4.62158e-05
4.60621e-05
4.58761e-05
4.58467e-05
4.55595e-05
4.53032e-05
4.49727e-05
4.48966e-05
4.43863e-05
4.38266e-05
4.31744e-05
4.3043e-05
4.21892e-05
4.12382e-05
4.0197e-05
3.99891e-05
3.87166e-05
3.72072e-05
3.56851e-05
3.5361e-05
3.33978e-05
4.90312e-05
4.88328e-05
4.88147e-05
4.87775e-05
4.83868e-05
4.78737e-05
4.78241e-05
4.77586e-05
4.75033e-05
4.71524e-05
4.71327e-05
4.7202e-05
4.7035e-05
4.67514e-05
4.6742e-05
4.68564e-05
4.67011e-05
4.64209e-05
4.64102e-05
4.64977e-05
4.62646e-05
4.58985e-05
4.58725e-05
4.58627e-05
4.55234e-05
4.49971e-05
4.49244e-05
4.47066e-05
4.40681e-05
4.32007e-05
4.30723e-05
4.25143e-05
4.15003e-05
4.02249e-05
4.00192e-05
3.90347e-05
3.74905e-05
3.57142e-05
3.53909e-05
3.36971e-05
6.52815e-05
6.51777e-05
6.51668e-05
6.51035e-05
6.46507e-05
6.40719e-05
6.39982e-05
6.37453e-05
6.33753e-05
6.2971e-05
6.2933e-05
6.285e-05
6.26184e-05
6.23203e-05
6.2299e-05
6.22873e-05
6.2099e-05
6.18261e-05
6.1807e-05
6.17927e-05
6.15743e-05
6.12541e-05
6.12236e-05
6.1131e-05
6.08089e-05
6.0336e-05
6.0275e-05
5.99548e-05
5.93161e-05
5.84842e-05
5.83358e-05
5.75659e-05
5.64201e-05
5.50567e-05
5.48171e-05
5.35349e-05
5.17556e-05
4.98247e-05
4.94542e-05
4.7375e-05
8.32283e-05
8.32219e-05
8.32175e-05
8.31021e-05
8.26075e-05
8.19991e-05
8.19004e-05
8.14248e-05
8.09276e-05
8.04596e-05
8.03953e-05
8.00922e-05
7.97598e-05
7.94264e-05
7.93852e-05
7.91778e-05
7.89216e-05
7.86361e-05
7.86004e-05
7.84018e-05
7.81399e-05
7.78255e-05
7.77798e-05
7.75046e-05
7.71314e-05
7.66844e-05
7.66097e-05
7.61393e-05
7.54832e-05
7.46793e-05
7.4523e-05
7.35485e-05
7.22997e-05
7.08527e-05
7.05761e-05
6.89611e-05
6.69401e-05
6.48573e-05
6.44382e-05
6.19706e-05
0.000102672
0.000102763
0.000102758
0.000102428
0.000101871
0.000101312
0.000101193
0.000100516
9.99536e-05
9.94467e-05
9.93513e-05
9.87785e-05
9.83286e-05
9.79492e-05
9.78799e-05
9.74083e-05
9.70491e-05
9.67278e-05
9.6667e-05
9.62098e-05
9.58607e-05
9.55227e-05
9.54532e-05
9.49197e-05
9.44528e-05
9.39737e-05
9.38714e-05
9.31252e-05
9.23789e-05
9.15697e-05
9.13968e-05
9.01652e-05
8.87838e-05
8.72907e-05
8.69717e-05
8.49619e-05
8.27382e-05
8.04456e-05
7.99717e-05
7.71301e-05
0.000102967
0.00010279
0.000102786
0.000102735
0.000102151
0.000101341
0.000101224
0.000100861
0.000100238
9.94767e-05
9.93846e-05
9.91572e-05
9.8617e-05
9.79802e-05
9.79152e-05
9.78151e-05
9.73444e-05
9.67601e-05
9.67042e-05
9.66398e-05
9.61672e-05
9.55565e-05
9.54922e-05
9.53672e-05
9.47753e-05
9.40093e-05
9.3912e-05
9.35813e-05
9.27212e-05
9.16071e-05
9.14385e-05
9.06222e-05
8.91532e-05
8.73305e-05
8.70145e-05
8.54085e-05
8.31388e-05
8.04869e-05
8.00142e-05
7.75539e-05
0.000123635
0.000123428
0.000123386
0.000123105
0.000122435
0.000121639
0.000121527
0.000121012
0.00012034
0.000119613
0.000119495
0.000119057
0.000118447
0.000117764
0.000117666
0.000117297
0.000116693
0.000116022
0.000115933
0.000115584
0.000114968
0.000114275
0.000114179
0.000113769
0.000113031
0.000112167
0.000112032
0.000111382
0.000110335
0.000109089
0.000108879
0.000107753
0.000106078
0.000104113
0.000103757
0.000101728
9.91853e-05
9.62558e-05
9.57241e-05
9.29644e-05
0.000145169
0.000144952
0.000144872
0.000144335
0.000143579
0.000142801
0.000142671
0.000141999
0.000141281
0.000140558
0.000140448
0.000139821
0.000139162
0.00013851
0.000138388
0.000137766
0.000137083
0.000136339
0.000136211
0.000135517
0.000134724
0.000133926
0.00013379
0.00013302
0.000132101
0.000131114
0.000130934
0.000129887
0.000128599
0.000127175
0.000126906
0.00012533
0.000123334
0.000121161
0.000120734
0.000118176
0.00011526
0.000111919
0.000111341
0.000108161
0.000167501
0.000167284
0.000167201
0.0001665
0.000165686
0.000164928
0.000164778
0.000163855
0.000163033
0.000162335
0.0001622
0.00016135
0.000160639
0.000159997
0.000159875
0.000159008
0.000158276
0.000157563
0.000157398
0.000156355
0.000155372
0.000154456
0.000154271
0.00015307
0.000151935
0.000150805
0.000150571
0.000149053
0.000147484
0.000145851
0.000145515
0.000143394
0.000141006
0.000138534
0.00013802
0.000134815
0.000131356
0.000127515
0.000126828
0.000123083
0.000190683
0.000190606
0.000190521
0.000189644
0.000188778
0.000188065
0.000187895
0.000186697
0.000185771
0.000185071
0.000184907
0.00018373
0.000182906
0.000182277
0.000182125
0.000180974
0.000180195
0.000179509
0.00017934
0.000177989
0.000176866
0.00017583
0.000175591
0.000173895
0.000172512
0.000171221
0.000170926
0.000168868
0.000166981
0.000165115
0.000164703
0.000161961
0.000159133
0.000156316
0.000155703
0.000151767
0.000147685
0.000143302
0.000142479
0.000137863
0.000191127
0.000190648
0.000190564
0.00019011
0.000189205
0.000188109
0.000187942
0.000187218
0.000186201
0.000185116
0.000184958
0.000184301
0.000183342
0.000182324
0.000182179
0.000181587
0.000180643
0.000179559
0.000179397
0.000178644
0.000177336
0.000175882
0.000175652
0.000174568
0.000172997
0.000171275
0.000170987
0.000169539
0.000167482
0.00016517
0.000164765
0.000162609
0.000159649
0.000156371
0.000155763
0.000152366
0.000148207
0.000143356
0.000142534
0.000138381
0.000215305
0.000214956
0.000214869
0.000214253
0.0002133
0.000212243
0.000212058
0.000211071
0.000209949
0.000208846
0.000208659
0.00020768
0.000206594
0.000205535
0.000205356
0.000204411
0.000203343
0.000202279
0.000202096
0.000201046
0.000199672
0.000198086
0.000197798
0.00019621
0.000194355
0.000192425
0.000192069
0.000190054
0.000187634
0.000185039
0.00018455
0.000181742
0.000178293
0.000174613
0.000173898
0.000169728
0.000164893
0.00015945
0.000158481
0.000153345
0.000240424
0.000240233
0.000240144
0.000239339
0.000238346
0.000237358
0.000237154
0.000235874
0.000234654
0.000233559
0.000233342
0.000232
0.000230787
0.000229705
0.00022949
0.000228138
0.000226933
0.000225828
0.000225606
0.000224182
0.000222764
0.000221104
0.000220759
0.000218615
0.000216462
0.000214322
0.000213892
0.000211236
0.000208422
0.000205534
0.000204954
0.000201418
0.000197443
0.000193348
0.000192518
0.000187503
0.000181954
0.000175912
0.000174788
0.000168592
0.00026648
0.000266475
0.000266384
0.000265362
0.000264335
0.000263448
0.000263227
0.000261623
0.000260311
0.000259252
0.000259005
0.000257259
0.000255923
0.000254836
0.000254583
0.000252776
0.000251429
0.000250298
0.000250032
0.000248118
0.000246623
0.000244929
0.000244535
0.000241798
0.000239341
0.000236994
0.000236483
0.000233116
0.000229881
0.00022669
0.000226011
0.000221675
0.00021714
0.000212616
0.000211664
0.000205732
0.000199436
0.000192783
0.0001915
0.000184193
0.000267083
0.000266533
0.000266443
0.000265995
0.000264915
0.000263509
0.000263292
0.000262331
0.000260897
0.000259315
0.000259075
0.000258034
0.000256518
0.000254902
0.000254658
0.000253607
0.000252038
0.000250366
0.00025011
0.000248991
0.000247252
0.000245001
0.000244617
0.000242699
0.000239991
0.000237067
0.000236567
0.000234007
0.000230547
0.000226763
0.000226093
0.000222524
0.000217816
0.000212689
0.000211743
0.000206507
0.00020011
0.000192853
0.000191572
0.000184856
0.000294123
0.000293744
0.000293652
0.000293003
0.000291892
0.000290579
0.000290344
0.000289078
0.000287553
0.000285995
0.000285724
0.000284296
0.000282648
0.000281009
0.000280726
0.000279228
0.000277501
0.000275776
0.000275475
0.000273865
0.000271963
0.000269682
0.00026925
0.000266748
0.000263716
0.000260551
0.000259966
0.000256683
0.000252765
0.00024863
0.000247854
0.00024346
0.000238147
0.000232541
0.000231465
0.000225283
0.000218096
0.000210183
0.000208737
0.000200899
0.000322094
0.000321922
0.000321828
0.00032094
0.000319804
0.000318623
0.000318372
0.000316761
0.000315156
0.000313658
0.000313357
0.000311492
0.000309724
0.000308094
0.00030777
0.000305767
0.000303889
0.000302136
0.000301786
0.000299618
0.000297538
0.000295258
0.000294772
0.000291615
0.000288259
0.000284872
0.000284198
0.000280116
0.000275724
0.000271243
0.000270355
0.000265052
0.000259103
0.000253017
0.000251803
0.000244591
0.00023658
0.000228007
0.000226391
0.000217374
0.000350999
0.000351071
0.000350975
0.00034981
0.000348656
0.000347645
0.000347378
0.000345384
0.000343709
0.00034231
0.000341978
0.000339633
0.000337753
0.000336166
0.0003358
0.000333238
0.000331214
0.000329462
0.000329061
0.000326273
0.000324015
0.000321769
0.000321226
0.000317337
0.00031365
0.000310063
0.000309295
0.000304345
0.000299464
0.000294647
0.00029364
0.000287349
0.000280734
0.000274165
0.000272805
0.000264481
0.000255611
0.000246372
0.000244579
0.000234324
0.000351807
0.00035115
0.000351055
0.000350655
0.000349433
0.000347727
0.000347466
0.00034633
0.000344495
0.000342395
0.000342073
0.000340669
0.000338552
0.000336255
0.000335901
0.000334349
0.000332032
0.000329555
0.000329168
0.000327439
0.000324857
0.000321866
0.000321338
0.000318534
0.00031452
0.000310162
0.000309408
0.000305526
0.000300351
0.000294747
0.000293751
0.000288469
0.000281627
0.000274264
0.000272912
0.000265494
0.000256492
0.000246465
0.000244676
0.000235188
0.000381715
0.000381283
0.000381186
0.000380528
0.000379288
0.00037774
0.000377463
0.000375967
0.000374063
0.000372049
0.000371696
0.000369835
0.000367603
0.000365332
0.000364936
0.000362845
0.000360371
0.000357871
0.000357432
0.000355098
0.000352322
0.000349342
0.000348756
0.000345222
0.000340853
0.000336262
0.000335412
0.000330667
0.000324976
0.000318991
0.000317872
0.000311591
0.000304041
0.000296141
0.000294637
0.000286084
0.000276177
0.000265425
0.000263453
0.000252716
0.00041256
0.0004124
0.0004123
0.000411335
0.000410084
0.000408742
0.000408449
0.000406541
0.000404583
0.000402703
0.000402321
0.000399943
0.000397613
0.000395415
0.000394976
0.000392278
0.000389664
0.000387186
0.000386693
0.000383676
0.000380717
0.000377766
0.000377117
0.000372792
0.000368075
0.00036329
0.00036234
0.000356646
0.000350438
0.000344104
0.000342856
0.000335482
0.000327205
0.000318786
0.00031712
0.000307334
0.000296489
0.000285022
0.00028286
0.000270794
0.00044435
0.000444508
0.000444405
0.000443085
0.000441829
0.00044074
0.000440432
0.000438063
0.000436062
0.000434366
0.000433953
0.000431005
0.000428592
0.000426514
0.000426031
0.000422667
0.000419926
0.000417513
0.000416964
0.000413198
0.000410061
0.00040715
0.000406436
0.000401268
0.000396214
0.000391272
0.000390219
0.000383499
0.000376772
0.000370118
0.000368735
0.000360185
0.000351162
0.000342239
0.000340406
0.000329295
0.00031748
0.000305303
0.000302943
0.000289473
0.00044542
0.000444614
0.000444513
0.000444202
0.000442857
0.00044085
0.00044055
0.000439313
0.000437104
0.000434481
0.000434081
0.000432374
0.000429654
0.000426634
0.000426168
0.000424136
0.000421015
0.000417638
0.000417108
0.000414739
0.000411182
0.000407281
0.000406586
0.000402848
0.00039737
0.000391406
0.000390372
0.000385058
0.000377951
0.000370253
0.000368886
0.000361662
0.000352347
0.000342372
0.00034055
0.000330627
0.000318643
0.000305429
0.000303073
0.000290608
0.000478243
0.000477731
0.000477628
0.000476984
0.000475634
0.000473862
0.000473548
0.000471878
0.000469627
0.000467169
0.000466741
0.000464494
0.000461689
0.000458771
0.000458262
0.000455594
0.000452339
0.000449004
0.000448419
0.000445327
0.000441581
0.000437663
0.0004369
0.000432362
0.000426531
0.000420376
0.000419237
0.000412915
0.000405266
0.000397207
0.000395703
0.00038731
0.000377214
0.000366684
0.000364688
0.000353433
0.000340437
0.00032645
0.000323891
0.000310014
0.000512013
0.000511857
0.000511751
0.00051071
0.000509362
0.000507885
0.000507557
0.000505385
0.00050311
0.000500881
0.000500423
0.000497562
0.000494695
0.000491942
0.000491389
0.000488002
0.00048464
0.000481411
0.000480768
0.000476863
0.00047295
0.000469078
0.000468244
0.000462798
0.000456629
0.00045034
0.000449093
0.000441658
0.000433477
0.00042511
0.000423464
0.000413796
0.000402915
0.000391874
0.000389698
0.000376999
0.000362971
0.000348242
0.000345473
0.000330088
0.00054674
0.000546999
0.000546889
0.000545391
0.00054405
0.000542928
0.000542585
0.000539849
0.000537563
0.000535624
0.000535137
0.000531593
0.000528683
0.000526157
0.000525561
0.000521381
0.000517932
0.00051487
0.000514169
0.000509372
0.000505312
0.000501541
0.000500633
0.000494186
0.000487686
0.000481314
0.000479955
0.000471317
0.000462607
0.000453979
0.000452187
0.000441152
0.000429479
0.000417965
0.000415603
0.000401365
0.000386285
0.000370842
0.000367856
0.000350878
0.000548144
0.000547139
0.000547033
0.000546854
0.000545399
0.000543075
0.000542743
0.000541483
0.000538931
0.000535778
0.000535308
0.000533383
0.00053008
0.000526318
0.000525744
0.000523302
0.000519366
0.000515038
0.000514362
0.000511388
0.000506791
0.000501717
0.000500835
0.000496252
0.00048921
0.000481494
0.000480161
0.000473357
0.000464162
0.000454162
0.000452391
0.000443089
0.000431041
0.000418145
0.000415798
0.000403115
0.000387818
0.000371013
0.000368033
0.000352376
0.000583937
0.000583316
0.000583207
0.000582602
0.000581153
0.000579156
0.000578811
0.000577023
0.00057446
0.000571572
0.000571074
0.000568508
0.000565159
0.0005616
0.000560982
0.000557792
0.000553764
0.000549575
0.000548843
0.00054502
0.000540266
0.000535262
0.000534306
0.000528746
0.000521349
0.000513506
0.00051206
0.000504081
0.000494333
0.000484025
0.000482106
0.00047146
0.000458591
0.00044517
0.000442635
0.000428426
0.000412046
0.000394467
0.000391267
0.00037403
0.000620681
0.000620524
0.000620411
0.000619297
0.000617861
0.000616271
0.000615911
0.000613506
0.000610951
0.00060841
0.000607883
0.00060458
0.000601213
0.00059794
0.00059728
0.000593236
0.00058915
0.000585186
0.000584395
0.00057961
0.000574735
0.000569884
0.00056885
0.000562174
0.000554444
0.000546548
0.000544984
0.000535699
0.000525413
0.000514871
0.0005128
0.00050068
0.000486995
0.000473124
0.000470395
0.000454535
0.000437068
0.000418783
0.000415358
0.000396436
0.000658389
0.000658768
0.000658651
0.000656953
0.000655537
0.000654423
0.000654049
0.000650949
0.000648418
0.000646297
0.000645742
0.000641618
0.000638257
0.000635346
0.000634642
0.000629656
0.00062554
0.000621878
0.000621028
0.000615189
0.000610219
0.000605595
0.000604478
0.000596562
0.000588511
0.000580625
0.000578939
0.000568237
0.000557416
0.000546701
0.000544472
0.000530773
0.00051627
0.000502008
0.00049908
0.000481469
0.000462911
0.000443976
0.000440323
0.000419631
0.000660213
0.000658954
0.000658841
0.000658849
0.000657289
0.000654618
0.000654258
0.000653063
0.000650196
0.000646502
0.000645969
0.000643931
0.000640075
0.00063556
0.000634885
0.000632139
0.000627409
0.000622102
0.000621286
0.000617796
0.000612151
0.00060583
0.000604748
0.000599231
0.000590499
0.000580867
0.000579214
0.000570871
0.000559443
0.000546946
0.000544745
0.000533278
0.000518307
0.000502251
0.000499342
0.000483743
0.000464915
0.000444209
0.000440562
0.000421595
0.000699017
0.000698254
0.000698137
0.000697602
0.00069606
0.00069383
0.000693457
0.000691614
0.000688768
0.000685461
0.0006849
0.000682096
0.000678241
0.000674054
0.000673338
0.000669708
0.000664941
0.000659901
0.000659028
0.000654545
0.000648795
0.00064266
0.000641493
0.00063476
0.000625678
0.000615998
0.000614222
0.0006045
0.000592505
0.000579775
0.000577415
0.000564404
0.000548585
0.000532081
0.000528973
0.000511656
0.000491717
0.000470306
0.000466432
0.00044574
0.000738762
0.000738596
0.000738476
0.000737293
0.000735778
0.000734088
0.0007337
0.000731095
0.000728293
0.000725476
0.000724888
0.000721192
0.000717373
0.000713622
0.000712863
0.000708217
0.000703454
0.000698793
0.000697861
0.000692243
0.000686434
0.000680593
0.000679336
0.000671198
0.00066179
0.000652157
0.00065025
0.000638984
0.00062644
0.000613571
0.000611046
0.000596333
0.000579677
0.000562825
0.000559512
0.000540335
0.000519295
0.000497286
0.000493182
0.000470651
0.000779459
0.000779983
0.000779858
0.000777938
0.000776458
0.000775392
0.00077499
0.000771526
0.000768787
0.000766549
0.000765932
0.000761245
0.000757489
0.000754265
0.000753462
0.000747695
0.000742968
0.00073878
0.000737789
0.000730926
0.00072509
0.000719632
0.000718278
0.000708572
0.000698842
0.000689326
0.000687284
0.000674343
0.000661253
0.000648316
0.000645619
0.000629081
0.000611588
0.000594462
0.00059094
0.000569794
0.000547659
0.000525137
0.000520801
0.00049635
0.000781804
0.000780228
0.000780109
0.00078037
0.000778709
0.000775649
0.000775266
0.00077423
0.000771074
0.000766819
0.000766231
0.0007642
0.000759829
0.000754549
0.000753784
0.000750863
0.000745378
0.000739078
0.000738131
0.000734255
0.000727585
0.000719945
0.000718637
0.000711969
0.000701397
0.000689647
0.000687648
0.000677688
0.000663851
0.00064864
0.00064598
0.000632262
0.000614196
0.000594784
0.000591287
0.000572693
0.000550232
0.000525448
0.000521122
0.000498888
0.000823616
0.000822678
0.000822556
0.000822134
0.000820506
0.000818022
0.000817625
0.000815794
0.000812695
0.000808972
0.000808358
0.000805406
0.000801089
0.000796291
0.000795485
0.000791519
0.000786061
0.000780187
0.000779184
0.000774143
0.000767433
0.000760114
0.000758706
0.000750474
0.000739537
0.000727829
0.000725693
0.000714111
0.000699688
0.000684334
0.000681501
0.000666007
0.000647068
0.000627315
0.000623608
0.000603097
0.000579528
0.000554176
0.000549622
0.000525544
0.000866339
0.000866168
0.000866042
0.000864806
0.000863221
0.000861439
0.000861027
0.000858255
0.000855241
0.000852179
0.000851537
0.000847508
0.000843288
0.000839105
0.000838257
0.00083308
0.000827699
0.000822391
0.000821329
0.000814948
0.000808251
0.000801265
0.00079974
0.00078978
0.000778508
0.000766965
0.000764684
0.000751284
0.000736296
0.000720917
0.000717904
0.000700447
0.000680649
0.000660677
0.000656757
0.000634163
0.000609505
0.000583726
0.000578944
0.000552898
0.000909987
0.000910692
0.000910562
0.000908405
0.000906872
0.000905894
0.000905468
0.00090164
0.000898729
0.000896436
0.000895765
0.000890539
0.000886444
0.000882988
0.000882096
0.000875583
0.000870314
0.000865686
0.000864564
0.000856712
0.000850045
0.000843341
0.000841679
0.000829878
0.000818301
0.000807013
0.00080458
0.000789219
0.000773671
0.000758348
0.000755148
0.000735592
0.000714936
0.000694832
0.000690692
0.0006659
0.000640166
0.000614064
0.000609054
0.000580956
0.000912969
0.000911013
0.000910891
0.000911488
0.000909734
0.00090623
0.000905828
0.000905056
0.000901637
0.000896789
0.000896157
0.000894263
0.000889421
0.00088336
0.000882518
0.000879571
0.000873383
0.000866078
0.000865013
0.000860903
0.000853225
0.000843748
0.000842146
0.00083411
0.000821524
0.000807431
0.000805056
0.000793379
0.000776937
0.000758772
0.000755619
0.000739543
0.000718204
0.000695254
0.000691145
0.00066951
0.000643393
0.000614475
0.000609476
0.000584157
0.000957739
0.000956591
0.000956466
0.000956215
0.000954507
0.000951744
0.000951328
0.000949583
0.000946259
0.000942116
0.000941458
0.00093846
0.000933731
0.000928334
0.000927451
0.000923268
0.000917178
0.000910489
0.000909368
0.00090389
0.000896214
0.000886749
0.000884994
0.000875233
0.000862302
0.000848375
0.000845849
0.000832282
0.000815235
0.000797035
0.000793694
0.000775584
0.000753349
0.000730185
0.000725858
0.000702094
0.000674889
0.000645587
0.000640367
0.000613097
0.00100336
0.00100319
0.00100306
0.00100179
0.00100015
0.000998276
0.000997845
0.000994948
0.000991751
0.000988475
0.000987788
0.000983492
0.000978922
0.000974358
0.000973432
0.000967808
0.000961872
0.000955972
0.000954792
0.000947729
0.000940107
0.000930704
0.000928773
0.00091701
0.000903751
0.000890131
0.000887445
0.000871761
0.000854133
0.00083604
0.000832504
0.000812148
0.000789032
0.000765804
0.000761252
0.000735175
0.000706906
0.000677391
0.00067195
0.000642586
0.00104986
0.00105078
0.00105065
0.00104824
0.00104667
0.00104582
0.00104537
0.00104118
0.00103814
0.00103585
0.00103513
0.0010294
0.00102502
0.00102142
0.00102045
0.00101324
0.00100749
0.00100251
0.00100127
0.00099247
0.000984696
0.000975566
0.000973434
0.000959466
0.000945871
0.000932643
0.000929787
0.000911831
0.000893623
0.000875725
0.000871985
0.000849242
0.000825249
0.000802049
0.000797268
0.000768761
0.000739444
0.000709832
0.00070417
0.000672627
0.00105361
0.0010512
0.00105108
0.0010521
0.00105026
0.00104625
0.00104584
0.00104544
0.00104178
0.00103631
0.00103564
0.00103403
0.00102876
0.0010219
0.001021
0.00101818
0.00101135
0.00100302
0.00100186
0.000997662
0.00098865
0.000976092
0.000974038
0.000964631
0.000949848
0.000933181
0.000930398
0.000916881
0.00089763
0.000876268
0.000872588
0.000854024
0.000829242
0.00080259
0.000797848
0.000773139
0.000743385
0.000710363
0.000704715
0.00067655
0.00110121
0.00109981
0.00109969
0.00109967
0.00109789
0.00109481
0.00109438
0.00109281
0.00108929
0.00108472
0.00108402
0.00108109
0.001076
0.00107002
0.00106907
0.0010648
0.00105814
0.00105064
0.00104942
0.00104357
0.00103396
0.00102166
0.00101946
0.00100799
0.000992812
0.000976423
0.000973469
0.00095776
0.000937878
0.000916602
0.000912718
0.000891848
0.000866148
0.000839432
0.000834464
0.000807413
0.0007766
0.000743414
0.000737552
0.000707326
0.00114959
0.00114939
0.00114926
0.00114799
0.00114629
0.00114434
0.00114389
0.00114092
0.00113757
0.0011341
0.00113338
0.00112889
0.00112403
0.00111912
0.00111813
0.00111215
0.00110573
0.00109927
0.00109798
0.00109003
0.00107959
0.00106785
0.00106551
0.00105175
0.00103622
0.00102027
0.00101714
0.000998986
0.000978493
0.000957468
0.00095337
0.000929966
0.000903368
0.000876758
0.000871556
0.00084197
0.000810127
0.000776968
0.000770893
0.000738447
0.00119874
0.0011999
0.00119976
0.00119709
0.00119549
0.0011948
0.00119434
0.00118981
0.00118666
0.00118443
0.00118368
0.00117748
0.00117288
0.0011692
0.00116816
0.00116031
0.00115416
0.00114883
0.00114743
0.00113681
0.00112566
0.0011146
0.00111211
0.00109592
0.00108005
0.00106465
0.00106132
0.00104057
0.00101947
0.000998784
0.000994465
0.00096839
0.000940898
0.00091449
0.00090905
0.00087682
0.000843966
0.000810957
0.000804668
0.000769917
0.00120338
0.00120043
0.00120031
0.00120185
0.00119994
0.00119536
0.00119494
0.00119503
0.00119117
0.00118503
0.00118433
0.00118314
0.0011775
0.00116982
0.00116887
0.00116635
0.00115892
0.00114949
0.00114818
0.00114298
0.0011304
0.00111526
0.00111287
0.00110205
0.00108484
0.00106532
0.00106209
0.00104654
0.00102426
0.000999466
0.000995222
0.000974018
0.000945642
0.000915168
0.000909777
0.000881976
0.000848639
0.000811627
0.000805355
0.000774577
0.0012536
0.00125188
0.00125175
0.00125202
0.00125019
0.00124677
0.00124633
0.00124501
0.00124133
0.00123632
0.0012356
0.00123285
0.00122745
0.00122088
0.00121988
0.00121565
0.00120846
0.0011997
0.00119819
0.00119017
0.00117711
0.00116255
0.00116
0.00114685
0.00112925
0.00111016
0.00110674
0.0010887
0.00106576
0.00104119
0.00103672
0.00101294
0.000983638
0.000953265
0.000947641
0.000917301
0.000882948
0.000846013
0.000839537
0.00080658
0.00130444
0.00130419
0.00130405
0.00130281
0.00130108
0.00129904
0.00129858
0.00129559
0.00129213
0.00128849
0.00128774
0.00128314
0.00127804
0.00127283
0.00127178
0.00126554
0.00125854
0.00125021
0.00124844
0.00123729
0.00122402
0.00121023
0.00120751
0.00119176
0.0011738
0.00115532
0.0011517
0.00113091
0.00110734
0.00108316
0.00107847
0.00105189
0.00102168
0.000991593
0.00098573
0.000952663
0.000917323
0.000880672
0.000873992
0.000838693
0.00135594
0.00135731
0.00135716
0.00135425
0.00135263
0.00135213
0.00135165
0.00134682
0.0013436
0.00134149
0.0013407
0.00133409
0.00132932
0.00132562
0.00132452
0.00131607
0.0013087
0.00130076
0.00129869
0.00128454
0.00127109
0.00125819
0.0012553
0.00123679
0.00121847
0.00120069
0.00119686
0.00117319
0.00114898
0.0011253
0.00112037
0.00109087
0.00105976
0.00103006
0.00102395
0.000988076
0.000951774
0.000915524
0.00090864
0.000870924
0.00136158
0.00135799
0.00135786
0.00136001
0.00135804
0.00135284
0.00135242
0.00135312
0.00134909
0.00134224
0.00134154
0.0013409
0.00133494
0.00132641
0.00132542
0.00132329
0.00131435
0.00130156
0.00129961
0.00129164
0.00127666
0.00125901
0.00125624
0.00124385
0.00122406
0.00120152
0.0011978
0.00118003
0.00115454
0.00112614
0.00112129
0.00109729
0.00106523
0.00103089
0.00102484
0.000993964
0.000957146
0.00091635
0.000909485
0.000876282
0.00141404
0.00141171
0.00141158
0.00141241
0.00141054
0.00140675
0.00140631
0.00140534
0.00140153
0.00139608
0.00139534
0.00139286
0.00138721
0.00138004
0.00137899
0.00137418
0.00136444
0.00135194
0.00134981
0.00133926
0.00132408
0.00130719
0.00130424
0.00128921
0.00126901
0.00124704
0.00124311
0.00122256
0.0011964
0.00116837
0.00116329
0.00113648
0.0011035
0.00106945
0.00106317
0.00102959
0.000991815
0.000951356
0.000944298
0.000908806
0.00146668
0.00146559
0.00146545
0.00146515
0.00146349
0.00146136
0.00146089
0.00145796
0.00145442
0.00145062
0.00144984
0.00144522
0.00143991
0.00143375
0.0014325
0.00142444
0.00141383
0.00140226
0.00139997
0.00138666
0.00137131
0.00135537
0.00135224
0.00133432
0.00131373
0.00129251
0.00128837
0.00126482
0.00123801
0.00121053
0.00120521
0.00117539
0.00114152
0.00110795
0.00110143
0.00106499
0.00102629