/*--------------------------------*- C++ -*----------------------------------*\
| =========                 |                                                 |
| \\      /  F ield         | OpenFOAM: The Open Source CFD Toolbox           |
|  \\    /   O peration     | Version:  2506                                  |
|   \\  /    A nd           | Website:  www.openfoam.com                      |
|    \\/     M anipulation  |                                                 |
\*---------------------------------------------------------------------------*/
FoamFile
{
    version     2.0;
    format      ascii;
    arch        "LSB;label=32;scalar=64";
    class       volScalarField;
    location    "0";
    object      omega;
}
// * * * * * * * * * * * * * * * * * * * * * * * * * * * * * * * * * * * * * //

dimensions      [0 0 -1 0 0 0 0];

internalField   nonuniform List<scalar> 
72100
(
1.22427e+06
1.42932e+06
1.42835e+06
1.27215e+06
1.27624e+06
1.43164e+06
1.42616e+06
1.2704e+06
1.2784e+06
1.43342e+06
1.42445e+06
1.26921e+06
1.28003e+06
1.43466e+06
1.42325e+06
1.26858e+06
1.28111e+06
1.43534e+06
1.42261e+06
1.26853e+06
1.28163e+06
1.43543e+06
1.42253e+06
1.26903e+06
1.2816e+06
1.43493e+06
1.42304e+06
1.2701e+06
1.281e+06
1.4338e+06
1.42416e+06
1.27174e+06
1.27986e+06
1.43205e+06
1.42593e+06
1.27398e+06
1.27821e+06
1.42966e+06
1.4284e+06
1.27607e+06
809124
715438
715841
789279
787172
714139
716774
790428
786159
713093
717407
791275
785367
712251
717734
791812
784818
711632
717754
792021
784521
711242
717451
791866
784498
711095
716819
791330
784768
711203
715846
790394
785377
711598
714543
789075
786388
712331
712936
787738
801488
714733
715117
781235
779803
713397
715977
781285
778616
712308
716535
781022
777537
711416
716784
780481
776579
710740
716726
779694
775731
710283
716344
778676
774987
710058
715633
777454
774324
710075
714584
776043
773730
710363
713209
774477
773182
710971
711536
773114
173037
162515
162540
170353
170128
162226
162509
170185
169733
161793
162260
169846
169247
161285
161880
169382
168686
160710
161372
168796
168048
160063
160729
168077
167322
159335
159939
167220
166497
158520
158994
166217
165573
157627
157904
165091
164576
156727
156742
163960
74255.1
71867.4
71867.5
73618.2
73544.2
71740.8
71788.1
73440.3
73230.1
71361.6
71439.7
73048.5
72757
70838.5
70937.4
72513.1
72155.3
70186.1
70293
71835.9
71421.2
69393.6
69494
71000.5
70534.6
68437.9
68516.1
69981
69467.8
67287.8
67326.5
68741.4
68185.1
65907.2
65889.3
67253.9
66668.1
64311.6
64226.4
65572.6
44569.2
43777.7
43778.4
44377.6
44363.1
43759.6
43769.8
44286.6
44155.2
43482.7
43493.4
43961.5
43760.9
43039
43049.9
43481.1
43222
42451
42458.3
42853
42539.6
41714.5
41713.3
42065.4
41693.5
40799.1
40782.5
41079.6
40640.2
39654.2
39613.4
39835.1
39309.5
38194
38117.4
38239.8
37597.1
36320.1
36197.1
36206
44406
43762.5
43762.9
44206.4
44206.6
43743.8
43752.8
44093.8
43996.3
43466.1
43475
43747
43597.3
43021.5
43030
43246.2
43051.3
42432.4
42437
42599.8
42359.2
41694.8
41690.5
41797.4
41500.4
40778
40758.4
40800.9
40430.8
39631.5
39588
39550.2
39078.7
38169.3
38090.8
37952.2
37336.6
36293
36169.2
35915.4
31220.2
30934.9
30936.2
31154.1
31181.5
30991.4
30997.3
31153.1
31096.4
30843.2
30842.4
30937.8
30828
30531.4
30525.8
30574.2
30420.2
30084.6
30073.4
30078.2
29883.3
29510.3
29491.8
29450
29205
28782.9
28752.8
28653.1
28343.9
27854.4
27806.9
27625.7
27219
26616.9
26541.3
26235.9
25658.5
24877.9
24755.4
24241.4
23663.5
23500.2
23501.7
23643
23680.9
23590.4
23597.7
23714.4
23692.1
23549.8
23550
23616.2
23544.9
23363.8
23358.5
23385.6
23274.7
23060
23049.2
23041.7
22896.9
22652.5
22635.9
22592.9
22408.7
22126.4
22101.8
22014.4
21783.3
21451.6
21414.9
21261.9
20954.3
20530
20471.6
20203
19735
19134.9
19032.1
18514
18733.9
18626.9
18628.6
18733.5
18770.9
18723.6
18731.8
18838.5
18840.5
18756.3
18759.1
18827.4
18787.7
18671
18668.7
18705.3
18631.7
18487.3
18480.3
18489.1
18387.1
18218.3
18206.6
18188.2
18056.1
17858.8
17841.2
17790.8
17626.5
17395
17369.5
17272.6
17055.7
16755.9
16714.7
16525.5
16176.9
15725.2
15645.5
15213.9
18686.2
18622.4
18624.1
18683.4
18724.9
18718.9
18726.8
18781.8
18793.9
18751.5
18753.6
18765.1
18740.4
18666
18662.9
18638.3
18583.2
18482
18474.2
18418.5
18337
18212.8
18200.2
18115.4
18004.2
17853.1
17834.8
17717.8
17572.3
17389.1
17363
17201.7
16999.5
16750.1
16708.4
16459.9
16119.9
15719.5
15639.6
15156.8
15244.9
15203
15205.2
15255.8
15291.5
15295
15303
15364.5
15388.7
15370.4
15374.8
15406.6
15402
15358.5
15358.8
15362.9
15333.3
15268.4
15264.7
15244.8
15193.3
15109.7
15102.2
15059.9
14986.1
14882.4
14870.6
14804.7
14706.9
14581.1
14564.2
14468.9
14334.7
14163.5
14135.9
13977
13738.3
13444.7
13385.7
13020.6
12724.7
12695.8
12698.5
12745.9
12776.2
12781.6
12789
12852.3
12881.9
12876.5
12882.3
12928.4
12937.5
12913.9
12916.6
12942.8
12932.4
12892.6
12892.4
12900.9
12873.5
12819.2
12816.2
12808.1
12764.5
12695.7
12689.6
12664.5
12604.3
12520.7
12511
12466.6
12384.5
12271.5
12255
12166.9
12009.8
11802.5
11761
11500.4
10820.4
10799.2
10802.3
10848.7
10875.3
10879.6
10886.3
10948.3
10978.8
10979.8
10986.2
11040.5
11057.7
11046.6
11051
11092.6
11095.7
11073.1
11075.5
11105.2
11096.1
11063.3
11063.7
11082
11061.8
11019.3
11017.6
11024.7
10994.4
10942.9
10939
10933.9
10892.1
10823.2
10815.2
10782.4
10689.7
10551.5
10524.2
10351.3
10796.4
10797
10800
10823.5
10852.1
10877.2
10883.8
10919.6
10955
10977.3
10983.4
11008.5
11033.3
11044
11048
11058
11070.5
11070.4
11072.3
11068.7
11070.1
11060.4
11060.4
11044.5
11034.9
11016.3
11014.2
10987.3
10966.6
10939.9
10935.6
10897.8
10863.4
10820.2
10811.9
10749.2
10661
10548.6
10521.3
10323.8
9324.93
9326.07
9329.23
9355.83
9381.31
9401.23
9407.1
9444.88
9478.29
9499.63
9505.78
9539.72
9567.49
9582.05
9587.1
9612.05
9631.87
9639.66
9643.48
9660.12
9673.16
9675.28
9677.87
9686.98
9693.5
9690.78
9692.23
9695.19
9696.46
9690.65
9691.14
9689.13
9685.2
9672.15
9670.58
9655.48
9617.72
9557.17
9541.38
9420.36
8159.08
8159.14
8162.16
8190.43
8213.28
8228.61
8233.94
8272.71
8303.65
8322.91
8328.95
8368.31
8397
8413.01
8418.58
8453.6
8477.58
8489.87
8494.88
8525.91
8546.75
8556.83
8561.34
8589.15
8607.45
8616.14
8620.28
8646.21
8664.17
8674.15
8678.3
8704.55
8724.5
8734.88
8738.64
8761.27
8763.95
8745.19
8738.95
8681.44
7216.35
7214.5
7217.26
7246.2
7266.68
7278.02
7282.86
7322.07
7350.45
7367.18
7373.05
7415.9
7444.45
7460.55
7466.4
7508.26
7534.44
7548.99
7554.7
7595.71
7621.41
7636.49
7642.35
7683.95
7710.62
7727.3
7733.42
7776.82
7807.27
7828.9
7835.86
7884.18
7922.64
7951.09
7959.06
8011.72
8046.81
8061.58
8063.26
8059.08
6440.32
6436.36
6438.87
6468.03
6486.38
6494.26
6498.66
6537.82
6563.61
6577.68
6583.31
6628.23
6656.01
6671.39
6677.38
6723.93
6751.19
6766.66
6772.81
6820.7
6849.15
6867.06
6873.8
6925.32
6957.75
6979.8
6987.36
7043.84
7083.46
7113.5
7122.57
7187.9
7240.52
7282.71
7293.96
7370.38
7431.21
7472.77
7480.96
7521.53
6427.17
6435.11
6437.59
6454.19
6473.63
6492.94
6497.24
6522.02
6550.46
6576.27
6581.74
6610.48
6642.32
6669.89
6675.67
6704.43
6736.88
6765.07
6770.97
6799.77
6834.09
6865.37
6871.86
6903.4
6941.86
6978.02
6985.33
7021.54
7066.69
7111.64
7120.5
7165.95
7222.9
7280.81
7291.91
7349.73
7413.18
7470.92
7479.06
7504.09
5780.26
5784.86
5787.12
5805.2
5822.61
5837.53
5841.45
5867.63
5893.23
5914.93
5920.12
5951.84
5981.87
6006.75
6012.55
6046.55
6078.62
6105.45
6111.65
6147.53
6182.48
6213.52
6220.57
6261.38
6302.78
6340.75
6349.08
6397.17
6448.14
6497.33
6507.77
6568.24
6635.27
6701.79
6715.42
6793.69
6877.01
6954.44
6967.89
7031.33
5232.8
5234.49
5236.54
5255.76
5271.36
5282.48
5286.06
5313.24
5336.19
5354.05
5358.94
5392.67
5420.64
5442.65
5448.36
5486.12
5517.22
5542.28
5548.63
5589.89
5624.72
5654.64
5662.02
5709.65
5752.49
5790.86
5799.87
5856.98
5911.71
5963.21
5974.77
6046.87
6121.12
6193.4
6208.93
6303.42
6401.98
6494.39
6512.08
6607.24
4764.34
4763.52
4765.38
4785.46
4799.45
4807.3
4810.57
4838.42
4858.96
4873.31
4877.89
4912.88
4938.71
4957.82
4963.37
5003.69
5033.45
5056.45
5062.82
5108.02
5142.29
5170.58
5178.1
5230.65
5273.86
5311.64
5321.06
5384.81
5441.71
5494.06
5506.39
5587.29
5666.43
5742.24
5759.16
5866.23
5976.21
6079.66
6100.69
6221.58
4754.53
4762.58
4764.42
4775.13
4789.93
4806.3
4809.5
4826.63
4849.11
4872.24
4876.7
4899.57
4928.39
4956.67
4962.06
4988.96
5022.56
5055.22
5061.4
5092.05
5130.71
5169.26
5176.58
5213.7
5261.44
5310.23
5319.44
5367.23
5428.33
5492.55
5504.7
5569.55
5652
5740.65
5757.44
5848.98
5960.89
6078.04
6099.01
6206.16
4350.71
4355.74
4357.42
4369.65
4382.95
4395.68
4398.63
4417.21
4437.32
4456.44
4460.6
4485.37
4511.73
4536.31
4541.5
4571.33
4602.94
4632.47
4638.6
4673.36
4710.65
4746.37
4753.72
4795.72
4842.59
4889.11
4898.55
4952.47
5014.06
5077.04
5089.66
5162.26
5247.43
5336.82
5354.57
5456.75
5576.69
5700.7
5724.22
5852.63
3998.88
4001.24
4002.77
4016.32
4028.28
4037.79
4040.5
4060.31
4078.28
4093.76
4097.64
4123.86
4147.83
4168.87
4173.84
4205.88
4235.35
4261.7
4267.71
4305.62
4341.23
4373.97
4381.28
4427.05
4472.49
4516.26
4525.75
4584.34
4645.44
4706.29
4719.15
4797.67
4884.02
4972.67
4991.02
5101.42
5226.73
5354.77
5380.17
5525.54
3690
3690.01
3691.41
3706.06
3716.83
3723.51
3726.02
3746.82
3762.87
3775.09
3778.71
3806
3827.71
3845.44
3850.16
3883.79
3911.09
3934.32
3940.16
3980.36
4014.11
4043.86
4051.05
4099.62
4143.3
4184.04
4193.47
4255.44
4315.36
4373.46
4386.38
4469.21
4555.56
4642.32
4660.99
4777.49
4905.98
5035.74
5062.47
5221.06
3682.07
3689.24
3690.62
3697.73
3709.13
3722.7
3725.14
3737.31
3754.91
3774.22
3777.74
3795.26
3819.33
3844.49
3849.09
3871.83
3902.17
3933.3
3938.98
3967.28
4004.53
4042.75
4049.77
4085.57
4132.89
4182.83
4192.08
4240.61
4303.93
4372.13
4384.91
4453.88
4542.9
4640.88
4659.43
4762.03
4892
5034.2
5060.87
5206.34
3409.64
3414.21
3415.47
3424.07
3434.36
3444.92
3447.19
3460.83
3476.58
3492.44
3495.73
3514.78
3536.54
3558.07
3562.42
3587.1
3615.04
3642.56
3648.04
3678.86
3713.84
3748.5
3755.36
3794.1
3839.12
3885.25
3894.36
3946.17
4007.49
4071.87
4084.55
4157.38
4245.22
4339.77
4358.41
4466.02
4597.23
4738.65
4766.18
4922.06
3167.43
3169.65
3170.81
3180.76
3190.04
3197.88
3199.99
3214.95
3229.05
3241.77
3244.83
3265.22
3284.82
3302.94
3307.05
3333.33
3358.91
3382.93
3388.2
3421.04
3453.68
3484.8
3491.47
3532.58
3575.15
3617.37
3626.26
3680.61
3739.54
3799.73
3812.22
3887.91
3973.8
4064.16
4082.68
4193.95
4324.9
4463.84
4491.82
4655.57
2950.89
2951
2952.07
2963.2
2971.58
2977
2978.95
2995.06
3007.68
3017.58
3020.44
3041.93
3059.54
3074.53
3078.41
3105.93
3129.26
3149.98
3155.01
3189.4
3219.71
3247.42
3253.87
3296.76
3336.84
3375.18
3383.81
3440
3496.3
3552.16
3564.36
3641.99
3725.37
3811.04
3829.3
3942.95
4072.43
4207.6
4235.69
4405.03
2944.13
2950.34
2951.38
2956.1
2965.01
2976.29
2978.19
2986.98
3000.88
3016.82
3019.59
3032.8
3052.37
3073.7
3077.47
3095.74
3121.6
3149.08
3153.98
3178.18
3211.4
3246.44
3252.74
3284.6
3327.72
3374.1
3382.57
3426.99
3486.13
3550.95
3563.01
3628.24
3713.85
3809.68
3827.83
3928.63
4059.24
4206.07
4234.12
4390.56
2749.97
2753.93
2754.89
2761.04
2769.1
2777.85
2779.62
2789.86
2802.35
2815.38
2817.97
2832.62
2850.24
2868.31
2871.85
2891.69
2915.24
2939.2
2943.87
2969.85
3000.6
3031.91
3037.97
3071.83
3112.24
3154.37
3162.56
3208.91
3265.08
3325.02
3336.73
3403.8
3486.32
3576.63
3594.38
3697.03
3825.09
3966.67
3994.55
4154.92
2574.8
2576.67
2577.56
2585.05
2592.33
2598.74
2600.4
2612
2623.19
2633.54
2635.96
2651.96
2667.77
2682.79
2686.13
2707.37
2728.72
2749.34
2753.77
2781.31
2809.6
2837.28
2843.11
2878.67
2916.37
2954.32
2962.2
3010.14
3063.22
3118.22
3129.54
3197.97
3277.06
3361.52
3378.78
3482.58
3607.29
3742.64
3770.13
3932.97
2416.08
2416.06
2416.87
2425.58
2432.15
2436.44
2437.99
2450.8
2460.84
2468.74
2471.02
2488.2
2502.37
2514.59
2517.74
2540.16
2559.47
2576.95
2581.16
2609.96
2635.92
2660.14
2665.71
2702.62
2737.69
2771.63
2779.2
2828.31
2878.3
2928.46
2939.35
3008.62
3084.1
3162.6
3179.31
3283.52
3404.28
3532.77
3559.69
3723.62
2410.08
2415.45
2416.26
2419.29
2426.32
2435.8
2437.3
2443.66
2454.81
2468.06
2470.26
2480.15
2496.01
2513.85
2516.89
2531.17
2552.66
2576.14
2580.23
2600.03
2628.49
2659.24
2664.67
2691.78
2729.48
2770.62
2778.05
2816.6
2869.04
2927.32
2938.09
2996.03
3073.42
3161.29
3177.9
3270.04
3391.65
3531.25
3558.12
3709.3
2265.99
2269.39
2270.13
2274.54
2280.91
2288.2
2289.6
2297.38
2307.41
2318.18
2320.24
2331.58
2345.83
2360.82
2363.69
2379.41
2398.87
2419.14
2423.02
2444.31
2470.4
2497.56
2502.74
2531.4
2566.41
2603.37
2610.48
2650.38
2699.63
2752.83
2763.16
2822.01
2895.58
2977.09
2993.08
3085.45
3202.6
3334.52
3360.66
3512.04
2134.55
2136.08
2136.76
2142.5
2148.25
2153.49
2154.81
2163.95
2172.95
2181.39
2183.33
2196.04
2208.81
2221.13
2223.83
2240.93
2258.48
2275.7
2279.37
2302.06
2325.87
2349.55
2354.49
2384.56
2416.95
2449.86
2456.65
2497.74
2543.85
2592.04
2601.91
2661.49
2731.16
2806.25
2821.6
2913.9
3026.24
3150.01
3175.31
3326.15
2014.22
2014.03
2014.67
2021.63
2026.82
2030.16
2031.4
2041.79
2049.85
2056.15
2057.98
2071.94
2083.36
2093.22
2095.77
2114.1
2129.89
2144.27
2147.75
2171.63
2193.32
2213.73
2218.43
2249.66
2279.57
2308.63
2315.11
2357.15
2400.21
2443.59
2453.02
2513.03
2578.83
2647.63
2662.31
2754.14
2861.46
2976.94
3001.3
3150.83
2008.75
2013.47
2014.09
2015.9
2021.51
2029.56
2030.76
2035.31
2044.35
2055.51
2057.27
2064.66
2077.57
2092.52
2094.98
2105.98
2123.68
2143.51
2146.87
2162.66
2186.53
2212.89
2217.46
2239.83
2272.02
2307.68
2314.02
2346.44
2391.63
2442.51
2451.81
2501.38
2568.82
2646.36
2660.94
2741.4
2849.36
2975.41
2999.73
3136.74
1898.48
1901.43
1902
1905.16
1910.22
1916.35
1917.47
1923.41
1931.55
1940.54
1942.21
1951.01
1962.62
1975.09
1977.41
1989.83
2005.82
2022.79
2025.97
2043.15
2064.92
2087.97
2092.32
2116.04
2145.76
2177.52
2183.56
2217.1
2259.27
2305.26
2314.12
2364.28
2427.84
2498.95
2512.85
2592.88
2695.68
2813.05
2836.37
2971.68
1797.03
1798.27
1798.81
1803.27
1807.85
1812.12
1813.18
1820.47
1827.77
1834.7
1836.28
1846.48
1856.87
1866.98
1869.18
1883
1897.37
1911.62
1914.63
1933.19
1952.95
1972.82
1976.94
2001.98
2029.32
2057.3
2063.05
2097.69
2136.93
2178.16
2186.59
2237.3
2297.04
2361.8
2375.04
2454.57
2552.17
2660.75
2683.03
2816.36
1703.42
1703.08
1703.58
1709.26
1713.39
1715.94
1716.94
1725.49
1732.01
1737.03
1738.52
1750.02
1759.3
1767.22
1769.3
1784.4
1797.3
1809.01
1811.86
1831.65
1849.55
1866.44
1870.36
1896.55
1921.66
1946.08
1951.55
1987.11
2023.56
2060.28
2068.29
2119.38
2175.44
2234.11
2246.68
2325.52
2417.93
2517.87
2539.1
2670.08
1698.31
1702.54
1703.03
1703.94
1708.44
1715.38
1716.34
1719.49
1726.9
1736.42
1737.85
1743.3
1753.91
1766.56
1768.56
1776.93
1791.53
1808.28
1811.03
1823.4
1843.25
1865.64
1869.43
1887.51
1914.64
1945.17
1950.51
1977.23
2015.55
2059.24
2067.13
2108.55
2166.02
2232.87
2245.34
2313.5
2406.37
2516.34
2537.52
2656.37
1611.89
1614.5
1614.95
1617.16
1621.23
1626.42
1627.33
1631.83
1638.5
1646.1
1647.45
1654.31
1663.84
1674.3
1676.19
1685.99
1699.17
1713.38
1715.99
1729.74
1747.79
1767.2
1770.81
1790.19
1815.15
1842.12
1847.19
1875
1910.61
1949.79
1957.28
1999.25
2053.13
2113.89
2125.71
2193.33
2281.09
2382.34
2402.45
2518.9
1531.85
1532.88
1533.3
1536.79
1540.46
1543.97
1544.83
1550.67
1556.64
1562.38
1563.66
1571.92
1580.44
1588.8
1590.6
1601.82
1613.64
1625.42
1627.89
1643.04
1659.38
1675.95
1679.37
1700.07
1722.94
1746.48
1751.3
1780.21
1813.22
1848.04
1855.14
1897.7
1948.13
2002.94
2014.14
2081.29
2164.05
2256.68
2275.72
2389.8
1457.53
1457.07
1457.47
1462.17
1465.47
1467.39
1468.21
1475.31
1480.63
1484.62
1485.85
1495.42
1503
1509.39
1511.11
1523.66
1534.23
1543.73
1546.09
1562.53
1577.28
1591.19
1594.45
1616.35
1637.28
1657.59
1662.16
1692.06
1722.62
1753.33
1760.06
1803.1
1850.22
1899.41
1910
1976.58
2054.5
2138.82
2156.83
2268.4
1452.71
1456.55
1456.93
1457.16
1460.8
1466.84
1467.62
1469.68
1475.8
1484.03
1485.19
1489.14
1497.93
1508.75
1510.38
1516.7
1528.8
1543.03
1545.28
1554.87
1571.36
1590.41
1593.55
1607.97
1630.68
1656.7
1661.15
1682.89
1715.1
1752.3
1758.92
1793
1841.34
1898.19
1908.69
1965.27
2043.52
2137.29
2155.25
2255.24
1383.67
1386.01
1386.37
1387.86
1391.14
1395.6
1396.34
1399.72
1405.21
1411.7
1412.81
1418.13
1426.03
1434.9
1436.45
1444.18
1455.09
1467.06
1469.21
1480.19
1495.16
1511.58
1514.56
1530.3
1551.15
1573.97
1578.2
1601.06
1630.91
1664.05
1670.32
1705.04
1750.22
1801.51
1811.43
1867.63
1941.22
2026.79
2043.73
2141.34
1319.4
1320.26
1320.6
1323.35
1326.31
1329.21
1329.9
1334.61
1339.51
1344.29
1345.35
1352.07
1359.11
1366.07
1367.56
1376.72
1386.49
1396.28
1398.33
1410.73
1424.28
1438.13
1440.98
1458.07
1477.15
1496.88
1500.9
1524.91
1552.52
1581.73
1587.68
1623.11
1665.27
1711.18
1720.54
1776.49
1845.6
1923.18
1939.13
2034.56
1259.41
1258.87
1259.19
1263.14
1265.79
1267.23
1267.89
1273.85
1278.19
1281.37
1282.38
1290.41
1296.67
1301.84
1303.26
1313.76
1322.49
1330.23
1332.18
1345.92
1358.16
1369.62
1372.34
1390.68
1408.11
1424.93
1428.76
1453.84
1479.35
1504.86
1510.5
1546.56
1585.87
1626.7
1635.55
1691.19
1756.04
1826.01
1841.03
1934.26
1254.81
1258.35
1258.66
1258.37
1261.34
1266.68
1267.31
1268.51
1273.59
1280.78
1281.73
1284.49
1291.85
1301.2
1302.54
1307.24
1317.34
1329.54
1331.39
1338.77
1352.56
1368.85
1371.45
1382.87
1401.89
1424.06
1427.77
1445.3
1472.26
1503.85
1509.37
1537.15
1577.51
1625.49
1634.24
1680.59
1745.67
1824.48
1839.46
1921.78
1198.82
1200.96
1201.25
1202.18
1204.86
1208.74
1209.33
1211.82
1216.38
1221.97
1222.88
1226.99
1233.58
1241.17
1242.45
1248.54
1257.64
1267.82
1269.59
1278.38
1290.93
1304.86
1307.34
1320.09
1337.54
1356.86
1360.39
1379.08
1404.03
1432.01
1437.24
1465.77
1503.42
1546.46
1554.71
1600.94
1661.96
1733.37
1747.43
1827.79
1146.48
1147.22
1147.49
1149.66
1152.07
1154.49
1155.06
1158.85
1162.9
1166.92
1167.79
1173.28
1179.14
1184.99
1186.22
1193.73
1201.87
1210.08
1211.78
1222.02
1233.39
1245.01
1247.39
1261.51
1277.46
1294.01
1297.37
1317.28
1340.33
1364.79
1369.75
1399.13
1434.22
1472.46
1480.24
1526.5
1583.68
1647.92
1661.12
1739.75
1097.43
1096.83
1097.09
1100.44
1102.6
1103.64
1104.19
1109.22
1112.8
1115.32
1116.16
1122.95
1128.14
1132.33
1133.52
1142.37
1149.64
1156
1157.64
1169.25
1179.51
1188.97
1191.24
1206.66
1221.21
1235.15
1238.36
1259.4
1280.69
1301.84
1306.55
1336.7
1369.38
1403.12
1410.47
1456.71
1510.26
1567.75
1580.14
1657.09
1093.01
1096.32
1096.56
1095.88
1098.33
1103.1
1103.61
1104.15
1108.4
1114.74
1115.52
1117.35
1123.53
1131.7
1132.81
1136.23
1144.73
1155.31
1156.85
1162.56
1174.2
1188.2
1190.37
1199.37
1215.32
1234.29
1237.38
1251.45
1274
1300.84
1305.43
1327.94
1361.52
1401.92
1409.18
1446.83
1500.54
1566.23
1578.58
1645.39
1047.04
1049.03
1049.26
1049.76
1051.97
1055.38
1055.87
1057.66
1061.45
1066.33
1067.08
1070.22
1075.75
1082.31
1083.38
1088.17
1095.83
1104.61
1106.1
1113.2
1123.78
1135.67
1137.75
1148.09
1162.71
1179.13
1182.08
1197.35
1218.22
1241.84
1246.2
1269.58
1300.89
1336.92
1343.76
1381.56
1431.86
1491.01
1502.59
1567.97
1003.93
1004.59
1004.81
1006.52
1008.5
1010.56
1011.03
1014.08
1017.45
1020.85
1021.58
1026.07
1030.98
1035.93
1036.96
1043.16
1050.02
1057.03
1058.47
1067
1076.56
1086.38
1088.37
1100.09
1113.45
1127.39
1130.21
1146.73
1166
1186.5
1190.64
1214.97
1244.14
1275.94
1282.4
1320.48
1367.56
1420.43
1431.28
1495.47
963.402
962.793
963.008
965.875
967.647
968.402
968.858
973.13
976.094
978.099
978.807
984.568
988.904
992.34
993.343
1000.87
1007.01
1012.33
1013.73
1023.59
1032.22
1040.07
1041.99
1055
1067.2
1078.8
1081.49
1099.18
1116.98
1134.54
1138.48
1163.69
1190.85
1218.69
1224.79
1263.12
1307.19
1354.17
1364.33
1427.39
959.142
962.276
962.479
961.508
963.54
967.855
968.273
968.299
971.869
977.514
978.16
979.262
984.488
991.708
992.628
995.087
1002.33
1011.64
1012.94
1017.32
1027.16
1039.31
1041.12
1048.2
1061.63
1077.94
1080.51
1091.79
1110.68
1133.54
1137.37
1155.56
1183.48
1217.49
1223.5
1253.95
1298.12
1352.64
1362.77
1416.52
921.032
922.929
923.124
923.3
925.132
928.18
928.583
929.813
933.001
937.286
937.912
940.285
944.964
950.71
951.606
955.409
961.948
969.617
970.87
976.588
985.528
995.772
997.511
1005.91
1018.23
1032.26
1034.73
1047.21
1064.69
1084.71
1088.35
1107.5
1133.53
1163.71
1169.38
1200.21
1241.56
1290.42
1299.9
1352.74
885.217
885.858
886.047
887.4
889.043
890.811
891.203
893.667
896.489
899.406
900.017
903.694
907.855
912.132
913.009
918.179
924.042
930.06
931.276
938.363
946.447
954.805
956.484
966.229
977.493
989.294
991.66
1005.39
1021.56
1038.79
1042.26
1062.42
1086.68
1113.16
1118.52
1149.83
1188.54
1231.96
1240.84
1292.98
851.46
850.894
851.079
853.569
855.043
855.589
855.971
859.615
862.099
863.716
864.315
869.236
872.922
875.799
876.659
883.113
888.341
892.791
893.975
902.351
909.643
916.214
917.839
928.849
939.143
948.836
951.111
966.013
980.954
995.578
998.884
1019.99
1042.61
1065.62
1070.68
1102.44
1138.68
1177.02
1185.35
1236.82
819.542
817.879
818.06
821.576
822.906
822.36
822.734
827.433
829.616
830.065
830.654
836.677
839.93
841.54
842.382
849.962
854.607
857.639
858.794
868.302
874.867
879.825
881.401
893.514
902.909
910.697
912.888
928.802
942.602
954.862
958.02
979.912
1000.99
1020.85
1025.65
1057.71
1091.63
1125.34
1133.15
1183.88
815.52
817.356
817.524
817.484
819.044
821.808
822.144
822.95
825.655
829.476
830.004
831.795
835.808
840.905
841.666
844.672
850.246
856.946
858.001
862.59
870.177
879.057
880.522
887.355
897.769
909.833
911.909
922.135
936.833
953.865
956.913
972.61
994.302
1019.66
1024.36
1049.5
1083.49
1123.84
1131.6
1174.18
785.529
786.159
786.324
787.425
788.845
790.426
790.758
792.762
795.166
797.721
798.242
801.282
804.848
808.568
809.314
813.604
818.591
823.77
824.801
830.697
837.563
844.725
846.147
854.276
863.814
873.868
875.868
887.318
900.927
915.493
918.404
935.141
955.385
977.502
981.96
1007.72
1039.57
1075.25
1082.53
1124.8
757.192
756.658
756.818
759.009
760.296
760.741
761.073
764.229
766.358
767.702
768.217
772.446
775.596
778.001
778.735
784.242
788.688
792.421
793.431
800.561
806.763
812.295
813.68
823.026
831.758
839.912
841.844
854.439
867.041
879.288
882.075
899.781
918.68
937.767
941.994
968.333
998.184
1029.52
1036.35
1078.33
730.336
728.744
728.9
732.065
733.222
732.633
732.963
737.155
739.032
739.279
739.79
745.087
747.856
749.07
749.795
756.394
760.34
762.763
763.755
771.99
777.572
781.628
782.98
793.414
801.387
807.819
809.689
823.303
834.953
845.092
847.765
866.321
883.95
900.276
904.288
931.106
959.075
986.435
992.847
1034.49
726.455
728.209
728.352
728.134
729.495
732.068
732.359
732.873
735.218
738.678
739.127
740.454
743.894
748.422
749.064
751.405
756.164
762.057
762.95
766.633
773.101
780.849
782.089
787.664
796.512
806.943
808.698
817.107
829.517
844.085
846.649
859.563
877.699
899.078
903.002
923.544
951.551
984.935
991.303
1025.6
701.19
701.792
701.93
702.784
704.008
705.45
705.739
707.391
709.477
711.751
712.198
714.712
717.772
721.024
721.66
725.221
729.488
733.984
734.863
739.787
745.652
751.836
753.049
759.856
767.977
776.601
778.301
787.886
799.4
811.782
814.242
828.189
845.147
863.704
867.429
888.683
914.963
944.364
950.343
984.644
677.284
676.777
676.911
678.793
679.885
680.236
680.522
683.255
685.098
686.23
686.676
690.317
693.026
695.058
695.69
700.406
704.223
707.388
708.257
714.346
719.661
724.361
725.55
733.51
740.966
747.882
749.534
760.213
770.904
781.231
783.596
798.498
814.366
830.289
833.831
855.735
880.407
906.114
911.734
946.018
654.595
653.078
653.208
656.019
656.987
656.346
656.629
660.334
661.944
662.035
662.48
667.138
669.516
670.435
671.065
676.83
680.218
682.172
683.031
690.185
694.972
698.319
699.486
708.502
715.317
720.673
722.28
733.964
743.861
752.307
754.583
770.362
785.186
798.689
802.061
824.556
847.71
870.013
875.299
909.553
650.871
652.53
652.648
652.268
653.415
655.767
656.012
656.269
658.286
661.418
661.8
662.76
665.722
669.772
670.318
672.141
676.231
681.45
682.21
685.177
690.721
697.523
698.58
703.153
710.708
719.782
721.275
728.226
738.756
751.286
753.456
764.131
779.367
797.482
800.768
817.622
840.787
868.513
873.758
901.467
629.506
630.078
630.192
630.826
631.851
633.135
633.378
634.694
636.477
638.49
638.872
640.938
643.57
646.431
646.976
649.94
653.612
657.545
658.299
662.425
667.463
672.841
673.881
679.606
686.557
694.004
695.458
703.519
713.313
723.903
725.993
737.668
751.945
767.604
770.733
788.338
810.117
834.455
839.39
867.309
609.271
608.8
608.912
610.511
611.424
611.687
611.929
614.249
615.815
616.759
617.141
620.244
622.574
624.301
624.847
628.875
632.165
634.875
635.626
640.826
645.406
649.433
650.459
657.248
663.651
669.563
670.983
680.061
689.182
697.955
699.973
712.555
725.949
739.323
742.308
760.583
781.073
802.285
806.934
835.014
590.051
588.627
588.736
591.215
592.02
591.353
591.594
594.829
596.187
596.154
596.537
600.59
602.624
603.314
603.86
608.868
611.782
613.369
614.116
620.315
624.438
627.223
628.236
636.021
641.878
646.375
647.762
657.8
666.255
673.345
675.295
688.742
701.275
712.524
715.374
734.3
753.563
771.86
776.241
804.507
586.504
588.066
588.162
587.664
588.625
590.761
590.964
591.007
592.714
595.524
595.844
596.497
599.027
602.635
603.098
604.502
608.009
612.631
613.279
615.671
620.427
626.412
627.315
631.079
637.548
645.467
646.742
652.517
661.487
672.309
674.153
683.027
695.885
711.305
714.072
727.972
747.225
770.358
774.701
797.186
568.4
568.944
569.039
569.488
570.343
571.487
571.69
572.718
574.224
575.995
576.317
577.988
580.233
582.742
583.207
585.655
588.803
592.242
592.889
596.34
600.667
605.352
606.245
611.066
617.027
623.478
624.726
631.524
639.881
648.979
650.763
660.575
672.646
685.923
688.567
703.216
721.351
741.601
745.699
768.525
551.238
550.814
550.907
552.252
553.012
553.214
553.418
555.367
556.692
557.481
557.806
560.422
562.411
563.881
564.35
567.757
570.585
572.909
573.557
577.97
581.915
585.379
586.265
592.036
597.543
602.621
603.845
611.555
619.358
626.852
628.582
639.217
650.566
661.866
664.396
679.685
696.78
714.393
718.261
741.343
534.933
533.618
533.71
535.877
536.545
535.883
536.089
538.89
540.037
539.921
540.25
543.746
545.481
545.993
546.465
550.775
553.278
554.571
555.218
560.548
564.099
566.429
567.307
573.993
579.031
582.828
584.028
592.626
599.864
605.852
607.528
618.98
629.61
639.042
641.463
657.409
673.503
688.615
692.267
715.663
531.586
533.045
533.124
532.548
533.347
535.279
535.446
535.331
536.771
539.279
539.546
539.958
542.105
545.303
545.692
546.756
549.746
553.821
554.37
556.289
560.355
565.604
566.374
569.475
575.004
581.907
582.996
587.807
595.451
604.803
606.376
613.779
624.655
637.813
640.153
651.669
667.734
687.112
690.729
709.069
516.227
516.745
516.822
517.121
517.832
518.852
519.021
519.81
521.079
522.637
522.909
524.25
526.156
528.351
528.746
530.756
533.442
536.441
536.993
539.867
543.569
547.643
548.409
552.458
557.558
563.143
564.214
569.944
577.074
584.894
586.42
594.676
604.896
616.182
618.424
630.647
645.8
662.716
666.137
684.879
501.662
501.294
501.37
502.485
503.117
503.282
503.455
505.076
506.196
506.866
507.143
509.328
511.026
512.285
512.686
515.546
517.97
519.969
520.526
524.245
527.632
530.617
531.381
536.258
540.984
545.354
546.408
552.928
559.599
566.016
567.499
576.47
586.094
595.675
597.824
610.617
624.917
639.612
642.847
661.867
487.838
486.647
486.723
488.596
489.151
488.525
488.7
491.102
492.071
491.916
492.199
495.186
496.667
497.055
497.462
501.14
503.287
504.353
504.913
509.458
512.51
514.473
515.233
520.932
525.259
528.48
529.516
536.836
543.027
548.105
549.544
559.257
568.275
576.217
578.276
591.687
605.159
617.705
620.762
640.147
484.717
486.065
486.128
485.512
486.176
487.912
488.049
487.829
489.038
491.265
491.487
491.722
493.538
496.357
496.683
497.483
500.022
503.595
504.059
505.599
509.06
513.641
514.295
516.85
521.56
527.553
528.481
532.491
538.991
547.051
548.391
554.574
563.767
574.985
576.967
586.529
599.952
616.207
619.23
634.247
471.71
472.197
472.26
472.442
473.033
473.94
474.081
474.679
475.745
477.112
477.341
478.411
480.024
481.938
482.272
483.918
486.201
488.809
489.279
491.668
494.823
498.353
499.008
502.403
506.752
511.572
512.489
517.312
523.378
530.085
531.389
538.328
546.97
556.554
558.456
568.658
581.324
595.471
598.335
613.761
459.377
459.07
459.134
460.042
460.568
460.714
460.859
462.19
463.136
463.714
463.949
465.755
467.2
468.287
468.63
471.008
473.081
474.808
475.286
478.397
481.298
483.876
484.532
488.628
492.673
496.437
497.343
502.829
508.518
514.014
515.284
522.819
530.966
539.094
540.92
551.596
563.554
575.836
578.548
594.217
447.693
446.639
446.702
448.295
448.755
448.186
448.335
450.367
451.185
451.02
451.262
453.784
455.046
455.353
455.704
458.808
460.649
461.543
462.026
465.866
468.487
470.157
470.813
475.633
479.344
482.093
482.986
489.173
494.457
498.78
500.014
508.201
515.836
522.541
524.291
535.518
546.781
557.227
559.787
575.815
444.823
446.052
446.102
445.478
446.025
447.569
447.68
447.395
448.404
450.366
450.548
450.657
452.183
454.652
454.924
455.523
457.669
460.784
461.174
462.414
465.349
469.325
469.88
471.991
475.991
481.168
481.958
485.305
490.815
497.73
498.869
504.036
511.787
521.317
522.994
530.935
542.136
555.747
558.275
570.586
433.829
434.281
434.331
434.422
434.905
435.706
435.822
436.266
437.155
438.348
438.539
439.389
440.746
442.409
442.691
444.038
445.971
448.23
448.629
450.615
453.295
456.345
456.904
459.751
463.449
467.596
468.38
472.437
477.583
483.317
484.43
490.256
497.544
505.657
507.27
515.773
526.342
538.147
540.547
553.238
423.364
423.114
423.164
423.891
424.323
424.456
424.578
425.657
426.452
426.957
427.156
428.637
429.864
430.809
431.102
433.069
434.839
436.34
436.749
439.339
441.822
444.055
444.62
448.047
451.503
454.751
455.529
460.128
464.969
469.678
470.765
477.07
483.949
490.841
492.391
501.266
511.243
521.504
523.775
536.648
413.412
412.487
412.539
413.886
414.265
413.76
413.886
415.595
416.287
416.133
416.341
418.458
419.538
419.795
420.097
422.705
424.288
425.057
425.475
428.704
430.958
432.4
432.968
437.023
440.206
442.576
443.346
448.549
453.057
456.755
457.814
464.677
471.131
476.806
478.291
487.64
497.036
505.745
507.887
521.078
410.771
411.893
411.932
411.314
411.764
413.137
413.227
412.904
413.747
415.474
415.624
415.647