/*--------------------------------*- C++ -*----------------------------------*\
| =========                 |                                                 |
| \\      /  F ield         | OpenFOAM: The Open Source CFD Toolbox           |
|  \\    /   O peration     | Version:  2506                                  |
|   \\  /    A nd           | Website:  www.openfoam.com                      |
|    \\/     M anipulation  |                                                 |
\*---------------------------------------------------------------------------*/
FoamFile
{
    version     2.0;
    format      ascii;
    arch        "LSB;label=32;scalar=64";
    class       volScalarField;
    location    "0";
    object      p;
}
// * * * * * * * * * * * * * * * * * * * * * * * * * * * * * * * * * * * * * //

dimensions      [0 2 -2 0 0 0 0];

internalField   nonuniform List<scalar> 
72100
(
17.3671
17.5374
17.5656
17.6097
17.748
17.9149
17.9619
18.1696
18.4425
18.7386
18.8184
19.1554
19.5665
19.9904
20.1028
20.5696
21.1218
21.6776
21.8238
22.4259
23.1262
23.8216
24.0038
24.7497
25.6078
26.4524
26.6728
27.5697
28.5943
29.5918
29.8516
30.9039
32.0824
33.2289
33.5214
34.6805
36.0103
37.1672
37.48
38.7634
17.3634
17.5493
17.5702
17.6071
17.7481
17.9191
17.954
18.1677
18.4431
18.7473
18.8064
19.153
19.5678
20.0035
20.0868
20.5668
21.1238
21.6952
21.8037
22.4225
23.1289
23.8439
23.9791
24.7457
25.6113
26.4796
26.6431
27.5649
28.5986
29.6239
29.8166
30.8986
32.0871
33.2674
33.4844
34.6734
36.0186
37.1982
37.4304
38.7671
17.3634
17.5493
17.5702
17.6071
17.7481
17.9191
17.954
18.1678
18.4431
18.7473
18.8064
19.153
19.5678
20.0035
20.0868
20.5668
21.1238
21.6952
21.8037
22.4225
23.1289
23.8439
23.9791
24.7457
25.6113
26.4796
26.6431
27.5649
28.5986
29.6239
29.8166
30.8986
32.0871
33.2674
33.4844
34.6734
36.0187
37.1982
37.4304
38.7671
17.3639
17.5492
17.57
17.6072
17.7482
17.9192
17.9541
18.1678
18.4432
18.7474
18.8066
19.1532
19.5679
20.0036
20.087
20.5669
21.124
21.6954
21.8039
22.4227
23.1292
23.8442
23.9794
24.7459
25.6116
26.4799
26.6435
27.5652
28.599
29.6243
29.8171
30.8991
32.0876
33.2679
33.4849
34.674
36.0193
37.1989
37.431
38.7678
17.3643
17.549
17.5698
17.6072
17.7483
17.9193
17.9542
18.168
18.4434
18.7476
18.8067
19.1533
19.5681
20.0038
20.0872
20.5672
21.1242
21.6956
21.8041
22.423
23.1295
23.8445
23.9797
24.7463
25.612
26.4804
26.6439
27.5657
28.5995
29.6249
29.8176
30.8997
32.0883
33.2686
33.4856
34.6748
36.0201
37.1997
37.4319
38.7687
17.3649
17.5487
17.5694
17.6073
17.7484
17.9194
17.9544
18.1682
18.4436
18.7478
18.807
19.1536
19.5684
20.0041
20.0875
20.5675
21.1245
21.696
21.8045
22.4234
23.1299
23.845
23.9802
24.7468
25.6125
26.481
26.6445
27.5664
28.6002
29.6256
29.8184
30.9006
32.0892
33.2696
33.4866
34.6759
36.0213
37.2009
37.4331
38.7699
17.3649
17.5486
17.5694
17.6073
17.7484
17.9194
17.9544
18.1682
18.4436
18.7478
18.807
19.1536
19.5684
20.0041
20.0875
20.5675
21.1246
21.696
21.8045
22.4234
23.1299
23.845
23.9802
24.7468
25.6126
26.481
26.6445
27.5664
28.6002
29.6256
29.8184
30.9006
32.0892
33.2696
33.4866
34.6759
36.0213
37.2009
37.4331
38.77
17.3657
17.5482
17.5688
17.6073
17.7485
17.9196
17.9545
18.1684
18.4438
18.7481
18.8073
19.1539
19.5688
20.0045
20.0879
20.568
21.125
21.6965
21.805
22.424
23.1305
23.8456
23.9809
24.7475
25.6133
26.4818
26.6454
27.5674
28.6012
29.6267
29.8196
30.9018
32.0906
33.271
33.4881
34.6775
36.023
37.2027
37.4349
38.7718
17.3666
17.5475
17.5681
17.6073
17.7486
17.9198
17.9547
18.1687
18.4441
18.7484
18.8077
19.1543
19.5692
20.005
20.0884
20.5685
21.1256
21.6972
21.8057
22.4247
23.1313
23.8465
23.9817
24.7484
25.6143
26.4829
26.6465
27.5685
28.6025
29.6281
29.821
30.9034
32.0923
33.2729
33.49
34.6795
36.0252
37.205
37.4373
38.7744
17.3676
17.5468
17.5673
17.6072
17.7487
17.92
17.9549
18.1689
18.4445
18.7488
18.808
19.1548
19.5697
20.0056
20.089
20.5691
21.1263
21.6979
21.8065
22.4255
23.1322
23.8474
23.9827
24.7495
25.6154
26.4841
26.6478
27.5699
28.604
29.6297
29.8226
30.9051
32.0942
33.275
33.4922
34.6819
36.0278
37.2079
37.4402
38.7775
17.3676
17.5468
17.5673
17.6072
17.7487
17.92
17.9549
18.1689
18.4445
18.7488
18.8081
19.1548
19.5697
20.0056
20.089
20.5692
21.1263
21.6979
21.8065
22.4256
23.1322
23.8474
23.9827
24.7496
25.6154
26.4841
26.6478
27.5699
28.604
29.6297
29.8226
30.9052
32.0942
33.275
33.4922
34.682
36.0278
37.2079
37.4403
38.7776
17.3687
17.546
17.5664
17.6071
17.7488
17.9201
17.9551
18.1692
18.4448
18.7492
18.8085
19.1553
19.5702
20.0062
20.0896
20.5698
21.127
21.6987
21.8073
22.4264
23.1331
23.8484
23.9838
24.7507
25.6167
26.4854
26.6491
27.5713
28.6055
29.6314
29.8243
30.907
32.0962
33.2773
33.4945
34.6845
36.0306
37.211
37.4434
38.7811
17.3699
17.5451
17.5653
17.607
17.7488
17.9202
17.9552
18.1694
18.4451
18.7496
18.8088
19.1557
19.5708
20.0068
20.0902
20.5705
21.1278
21.6995
21.8081
22.4273
23.134
23.8495
23.9848
24.7518
25.6178
26.4867
26.6504
27.5727
28.607
29.633
29.826
30.9088
32.0982
33.2795
33.4968
34.6869
36.0334
37.2141
37.4466
38.7846
17.3712
17.544
17.5642
17.6068
17.7488
17.9203
17.9553
18.1696
18.4454
18.7499
18.8092
19.1562
19.5713
20.0073
20.0908
20.5711
21.1285
21.7003
21.8089
22.4281
23.1349
23.8505
23.9858
24.7529
25.619
26.488
26.6517
27.5741
28.6085
29.6346
29.8276
30.9106
32.1
33.2815
33.4989
34.6892
36.0358
37.217
37.4497
38.7879
17.3712
17.544
17.5642
17.6068
17.7488
17.9203
17.9553
18.1696
18.4454
18.7499
18.8092
19.1562
19.5713
20.0073
20.0908
20.5712
21.1285
21.7003
21.8089
22.4282
23.1349
23.8505
23.9859
24.753
25.619
26.488
26.6517
27.5742
28.6085
29.6346
29.8276
30.9107
32.1
33.2815
33.4989
34.6893
36.0358
37.217
37.4497
38.788
17.3725
17.5429
17.5629
17.6065
17.7487
17.9203
17.9554
18.1697
18.4456
18.7502
18.8095
19.1566
19.5717
20.0078
20.0913
20.5718
21.1292
21.701
21.8097
22.429
23.1359
23.8514
23.9868
24.754
25.6202
26.4892
26.6529
27.5754
28.6098
29.636
29.8291
30.9121
32.1016
33.2832
33.5006
34.6912
36.038
37.2196
37.4523
38.7909
17.3738
17.5417
17.5615
17.6062
17.7486
17.9203
17.9554
18.1698
18.4458
18.7505
18.8098
19.1569
19.5721
20.0083
20.0918
20.5723
21.1298
21.7017
21.8104
22.4297
23.1367
23.8523
23.9877
24.7549
25.6212
26.4902
26.654
27.5765
28.611
29.6372
29.8303
30.9133
32.1029
33.2846
33.502
34.6927
36.0396
37.2215
37.4543
38.7931
17.3752
17.5403
17.56
17.6058
17.7484
17.9202
17.9553
18.1699
18.4459
18.7507
18.81
19.1572
19.5725
20.0087
20.0923
20.5728
21.1304
21.7023
21.811
22.4304
23.1374
23.8531
23.9885
24.7557
25.622
26.491
26.6549
27.5774
28.6118
29.6381
29.8312
30.9143
32.1038
33.2854
33.5029
34.6936
36.0405
37.2227
37.4556
38.7943
17.3766
17.5388
17.5584
17.6054
17.7481
17.92
17.9551
18.1698
18.446
18.7508
18.8101
19.1575
19.5727
20.009
20.0926
20.5732
21.1308
21.7028
21.8115
22.431
23.1379
23.8537
23.9891
24.7564
25.6226
26.4917
26.6556
27.5782
28.6124
29.6387
29.8319
30.9149
32.1043
33.2858
33.5033
34.6941
36.0406
37.2232
37.4561
38.7945
17.3766
17.5388
17.5584
17.6053
17.7481
17.92
17.9551
18.1698
18.446
18.7508
18.8101
19.1575
19.5727
20.009
20.0926
20.5732
21.1308
21.7028
21.8115
22.431
23.138
23.8537
23.9891
24.7564
25.6226
26.4917
26.6555
27.5781
28.6125
29.6387
29.8318
30.9148
32.1043
33.2858
33.5033
34.694
36.0407
37.2232
37.4561
38.7946
17.378
17.5373
17.5567
17.6048
17.7478
17.9198
17.9549
18.1697
18.4459
18.7508
18.8102
19.1576
19.5729
20.0093
20.0929
20.5736
21.1312
21.7032
21.8119
22.4314
23.1384
23.8541
23.9896
24.7569
25.6231
26.4921
26.656
27.5785
28.6128
29.6389
29.8321
30.915
32.1043
33.2856
33.5031
34.6938
36.0402
37.2228
37.4557
38.7938
17.3794
17.5356
17.5548
17.6042
17.7474
17.9195
17.9546
18.1695
18.4458
18.7508
18.8102
19.1576
19.5731
20.0095
20.0931
20.5738
21.1314
21.7034
21.8122
22.4317
23.1387
23.8544
23.9899
24.7572
25.6233
26.4923
26.6562
27.5787
28.6128
29.6388
29.8319
30.9146
32.1037
33.2847
33.5023
34.6928
36.0388
37.2216
37.4545
38.7919
17.3808
17.5339
17.5529
17.6036
17.7469
17.9191
17.9543
18.1693
18.4456
18.7507
18.8101
19.1576
19.5731
20.0095
20.0931
20.5739
21.1315
21.7036
21.8123
22.4319
23.1388
23.8545
23.99
24.7573
25.6233
26.4922
26.6561
27.5785
28.6124
29.6382
29.8314
30.9139
32.1025
33.2832
33.5008
34.6912
36.0364
37.2193
37.4522
38.7889
17.3808
17.5339
17.5529
17.6035
17.7468
17.9191
17.9543
18.1693
18.4456
18.7507
18.8101
19.1576
19.5731
20.0095
20.0931
20.5739
21.1315
21.7036
21.8123
22.4319
23.1388
23.8545
23.99
24.7573
25.6233
26.4922
26.6561
27.5785
28.6124
29.6382
29.8313
30.9138
32.1025
33.2833
33.5008
34.691
36.0363
37.2193
37.4522
38.7887
17.3821
17.532
17.5508
17.6027
17.7462
17.9186
17.9538
18.1689
18.4453
18.7504
18.8099
19.1574
19.573
20.0094
20.0931
20.5738
21.1315
21.7035
21.8123
22.4319
23.1388
23.8544
23.9899
24.7571
25.623
26.4918
26.6557
27.5779
28.6116
29.6372
29.8303
30.9124
32.1008
33.281
33.4985
34.6884
36.033
37.2159
37.4487
38.7844
17.3834
17.53
17.5486
17.6019
17.7455
17.918
17.9532
18.1685
18.4449
18.7501
18.8096
19.1572
19.5727
20.0092
20.0929
20.5737
21.1313
21.7034
21.8122
22.4317
23.1385
23.8541
23.9896
24.7567
25.6225
26.4911
26.6549
27.577
28.6104
29.6356
29.8287
30.9105
32.0984
33.278
33.4955
34.6849
36.0286
37.2114
37.4441
38.7787
17.3846
17.5279
17.5463
17.601
17.7447
17.9173
17.9526
18.1679
18.4444
18.7497
18.8091
19.1568
19.5724
20.0089
20.0926
20.5734
21.131
21.703
21.8118
22.4314
23.138
23.8535
23.989
24.7561
25.6215
26.49
26.6539
27.5757
28.6086
29.6335
29.8266
30.908
32.0952
33.2741
33.4915
34.6806
36.023
37.2055
37.4382
38.7714
17.3846
17.5279
17.5463
17.6009
17.7446
17.9173
17.9526
18.1679
18.4444
18.7497
18.8091
19.1568
19.5724
20.0089
20.0926
20.5734
21.131
21.703
21.8118
22.4313
23.138
23.8535
23.989
24.756
25.6215
26.49
26.6538
27.5756
28.6086
29.6335
29.8266
30.9079
32.095
33.2741
33.4915
34.6803
36.0228
37.2055
37.4381
38.771
17.3858
17.5257
17.5439
17.5998
17.7437
17.9165
17.9518
18.1672
18.4438
18.7491
18.8086
19.1563
19.5719
20.0084
20.0921
20.5729
21.1305
21.7025
21.8113
22.4307
23.1373
23.8527
23.9882
24.755
25.6203
26.4885
26.6523
27.5738
28.6064
29.6308
29.8238
30.9045
32.0911
33.2693
33.4866
34.6747
36.0161
37.1982
37.4307
38.7621
17.3868
17.5233
17.5413
17.5986
17.7427
17.9156
17.9509
18.1664
18.4431
18.7484
18.8078
19.1556
19.5712
20.0077
20.0914
20.5722
21.1298
21.7017
21.8105
22.4299
23.1364
23.8515
23.987
24.7537
25.6187
26.4866
26.6504
27.5715
28.6036
29.6275
29.8204
30.9006
32.0863
33.2635
33.4807
34.6681
36.0079
37.1895
37.4218
38.7514
17.3878
17.5208
17.5386
17.5974
17.7415
17.9145
17.9499
18.1655
18.4422
18.7475
18.807
19.1548
19.5704
20.0069
20.0906
20.5714
21.1288
21.7007
21.8095
22.4289
23.1351
23.8501
23.9856
24.7521
25.6167
26.4842
26.648
27.5689
28.6002
29.6235
29.8164
30.8959
32.0806
33.2567
33.4738
34.6604
35.9983
37.1791
37.4113
38.7388
17.3878
17.5208
17.5386
17.5973
17.7414
17.9145
17.9498
18.1654
18.4422
18.7475
18.807
19.1547
19.5703
20.0069
20.0906
20.5714
21.1288
21.7007
21.8095
22.4288
23.1351
23.8501
23.9856
24.752
25.6166
26.4842
26.648
27.5687
28.6001
29.6234
29.8163
30.8956
32.0803
33.2567
33.4737
34.6599
35.9978
37.1791
37.4112
38.738
17.3886
17.5182
17.5358
17.5958
17.7401
17.9133
17.9487
18.1643
18.4411
18.7464
18.806
19.1537
19.5694
20.0059
20.0896
20.5703
21.1277
21.6995
21.8083
22.4274
23.1336
23.8483
23.9838
24.7499
25.6142
26.4814
26.6451
27.5653
28.5961
29.6187
29.8115
30.89
32.0737
33.2487
33.4656
34.6507
35.9868
37.167
37.3989
38.7234
17.3894
17.5153
17.5328
17.5942
17.7386
17.9119
17.9473
18.1631
18.4399
18.7453
18.8048
19.1526
19.5682
20.0046
20.0883
20.5691
21.1263
21.698
21.8068
22.4258
23.1317
23.8462
23.9817
24.7475
25.6114
26.478
26.6417
27.5614
28.5915
29.6132
29.8059
30.8835
32.066
33.2395
33.4562
34.6402
35.9742
37.1532
37.3847
38.7067
17.39
17.5124
17.5296
17.5925
17.737
17.9104
17.9458
18.1617
18.4385
18.7439
18.8034
19.1513
19.5667
20.0031
20.0869
20.5676
21.1246
21.6962
21.805
22.424
23.1295
23.8437
23.9792
24.7448
25.608
26.474
26.6377
27.557
28.5861
29.6068
29.7994
30.8762
32.0572
33.229
33.4455
34.6284
35.9597
37.1373
37.3686
38.6877
17.39
17.5124
17.5296
17.5924
17.7369
17.9104
17.9458
18.1616
18.4384
18.7439
18.8034
19.1512
19.5667
20.0031
20.0869
20.5675
21.1246
21.6962
21.805
22.4238
23.1294
23.8437
23.9792
24.7446
25.6078
26.474
26.6377
27.5567
28.5858
29.6068
29.7994
30.8756
32.0567
33.2289
33.4454
34.6275
35.9587
37.1372
37.3684
38.6863
17.3904
17.5093
17.5263
17.5905
17.7351
17.9087
17.9441
18.16
18.4369
18.7423
18.8019
19.1496
19.565
20.0014
20.0851
20.5657
21.1226
21.6941
21.8029
22.4215
23.1269
23.8408
23.9762
24.7412
25.6039
26.4695
26.6331
27.5514
28.5796
29.5996
29.792
30.8671
32.0468
33.2171
33.4333
34.6139
35.9426
37.1193
37.3501
38.6649
17.3906
17.506
17.5228
17.5884
17.7331
17.9067
17.9422
18.1582
18.4351
18.7405
18.8001
19.1478
19.5632
19.9994
20.0832
20.5636
21.1204
21.6916
21.8004
22.4189
23.1239
23.8374
23.9728
24.7374
25.5995
26.4643
26.6278
27.5455
28.5727
29.5914
29.7836
30.8576
32.0356
33.2038
33.4197
34.5988
35.9245
37.0992
37.3296
38.6409
17.3907
17.5025
17.5191
17.5861
17.7308
17.9046
17.9401
18.1562
18.4331
18.7385
18.7981
19.1458
19.561
19.9972
20.0809
20.5613
21.1178
21.6888
21.7976
22.4159
23.1204
23.8335
23.9688
24.7331
25.5944
26.4584
26.6218
27.5389
28.5648
29.5821
29.7742
30.847
32.0231
33.1888
33.4046
34.5822
35.9043
37.0768
37.3067
38.6143
17.3907
17.5025
17.5191
17.586
17.7307
17.9046
17.9401
18.1561
18.433
18.7385
18.798
19.1457
19.5609
19.9972
20.0809
20.5612
21.1177
21.6888
21.7976
22.4157
23.1202
23.8335
23.9688
24.7327
25.5941
26.4584
26.6218
27.5384
28.5642
29.5821
29.7741
30.8461
32.0222
33.1887
33.4044
34.5807
35.9026
37.0766
37.3065
38.612
17.3906
17.4988
17.5152
17.5835
17.7282
17.9022
17.9377
18.1539
18.4307
18.7361
18.7957
19.1434
19.5585
19.9946
20.0783
20.5585
21.1148
21.6856
21.7943
22.4122
23.1164
23.8291
23.9643
24.7277
25.5884
26.4518
26.6151
27.5307
28.5554
29.5717
29.7636
30.8341
32.0083
33.1722
33.3875
34.5618
35.8803
37.0517
37.281
38.5824
17.3902
17.4949
17.5111
17.5807
17.7256
17.8996
17.9351
18.1514
18.4282
18.7336
18.7932
19.1408
19.5558
19.9917
20.0754
20.5554
21.1115
21.6819
21.7907
22.4083
23.112
23.8241
23.9593
24.7222
25.582
26.4444
26.6075
27.5224
28.5456
29.5602
29.7518
30.8209
31.9928
33.1538
33.3688
34.5411
35.8557
37.0241
37.2529
38.5499
17.3896
17.4908
17.5067
17.5778
17.7226
17.8967
17.9323
18.1487
18.4255
18.7307
18.7903
19.1379
19.5528
19.9884
20.0722
20.5521
21.1078
21.6779
21.7866
22.404
23.1071
23.8185
23.9537
24.7161
25.5748
26.4361
26.5991
27.5132
28.5347
29.5474
29.7389
30.8065
31.9758
33.1336
33.3482
34.5186
35.8286
36.9939
37.222
38.5144
17.3896
17.4907
17.5067
17.5776
17.7224
17.8967
17.9323
18.1485
18.4253
18.7307
18.7903
19.1377
19.5526
19.9884
20.0721
20.5518
21.1075
21.6778
21.7866
22.4036
23.1067
23.8185
23.9537
24.7155
25.5743
26.436
26.599
27.5123
28.5338
29.5473
29.7387
30.805
31.9743
33.1334
33.348
34.5164
35.8261
36.9935
37.2216
38.5107
17.3886
17.4864
17.5021
17.5743
17.7192
17.8935
17.9291
18.1455
18.4222
18.7275
18.7871
19.1345
19.5492
19.9848
20.0685
20.548
21.1034
21.6733
21.7819
22.3986
23.1013
23.8122
23.9473
24.7085
25.5663
26.4268
26.5896
27.5018
28.5218
29.5332
29.7243
30.7888
31.9556
33.1112
33.3253
34.4912
35.7965
36.9603
37.1876
38.4716
17.3874
17.4817
17.4973
17.5708
17.7157
17.89
17.9257
18.1421
18.4188
18.724
18.7836
19.131
19.5454
19.9807
20.0644
20.5438
21.0989
21.6682
21.7768
22.3932
23.0951
23.8053
23.9403
24.7008
25.5575
26.4166
26.5793
27.4904
28.5085
29.5177
29.7085
30.7711
31.9351
33.0869
33.3004
34.4639
35.7642
36.924
37.1504
38.4292
17.386
17.4768
17.4922
17.5671
17.7118
17.8862
17.9219
18.1385
18.4151
18.7201
18.7797
19.1271
19.5413
19.9762
20.0599
20.5392
21.0937
21.6625
21.7712
22.3873
23.0884
23.7976
23.9325
24.6924
25.5477
26.4053
26.5679
27.478
28.4939
29.5006
29.6911
30.752
31.9126
33.0602
33.2734
34.4344
35.7291
36.8843
37.11
38.3832
17.3859
17.4768
17.4921
17.5668
17.7116
17.8862
17.9219
18.1382
18.4149
18.7201
18.7797
19.1267
19.541
19.9762
20.0599
20.5388
21.0934
21.6625
21.7711
22.3867
23.0878
23.7975
23.9324
24.6915
25.5469
26.4052
26.5677
27.4766
28.4925
29.5004
29.6909
30.7498
31.9104
33.0599
33.273
34.431
35.7252
36.8838
37.1095
38.3778
17.384
17.4716
17.4867
17.5626
17.7073
17.8821
17.9178
18.1341
18.4108
18.7158
18.7754
19.1223
19.5364
19.9713
20.0549
20.5335
21.0877
21.6562
21.7648
22.3799
23.0804
23.789
23.9237
24.682
25.5361
26.3928
26.5551
27.4626
28.4765
29.4817
29.6718
30.7284
31.8859
33.0309
33.2433
34.3983
35.687
36.8407
37.0654
38.3275
17.3819
17.466
17.4809
17.5581
17.7028
17.8775
17.9132
18.1298
18.4063
18.7111
18.7707
19.1176
19.5313
19.9658
20.0494
20.5278
21.0815
21.6493
21.7578
22.3725
23.0721
23.7795
23.9142
24.6716
25.5243
26.3791
26.5412
27.4475
28.459
29.4613
29.651
30.7053
31.8593
32.9994
33.2112
34.3633
35.6458
36.794
37.0176
38.2736
17.3793
17.4601
17.4748
17.5533
17.6979
17.8726
17.9083
18.125
18.4014
18.7059
18.7655
19.1124
19.5258
19.9598
20.0434
20.5216
21.0746
21.6417
21.7502
22.3645
23.063
23.7691
23.9037
24.6604
25.5114
26.3642
26.5261
27.4311
28.4399
29.439
29.6283
30.6805
31.8304
32.9651
33.1763
34.3255
35.6012
36.7434
36.9661
38.2156
17.3791
17.4601
17.4748
17.5529
17.6975
17.8726
17.9083
18.1246
18.401
18.7058
18.7655
19.1119
19.5253
19.9597
20.0433
20.521
21.074
21.6416
21.7501
22.3636
23.0621
23.769
23.9035
24.6591
25.5101
26.364
26.5259
27.429
28.4379
29.4387
29.628
30.6773
31.827
32.9646
33.1758
34.3206
35.5955
36.7426
36.9653
38.2077
17.376
17.4538
17.4683
17.5476
17.6921
17.8671
17.9029
18.1193
18.3956
18.7002
18.7598
19.1061
19.5192
19.9531
20.0367
20.514
21.0665
21.6333
21.7417
22.3546
23.0521
23.7576
23.8919
24.6464
25.4959
26.3477
26.5093
27.4108
28.417
29.4144
29.6032
30.6498
31.7956
32.9275
33.1379
34.2791
35.5473
36.6879
36.9094
38.1447
17.3725
17.4471
17.4615
17.5419
17.6863
17.8613
17.8971
18.1136
18.3897
18.694
18.7536
19.0998
19.5125
19.9459
20.0294
20.5065
21.0583
21.6242
21.7324
22.3449
23.0411
23.7451
23.8792
24.6328
25.4805
26.3298
26.4912
27.3911
28.3944
29.388
29.5763
30.6204
31.7617
32.8874
33.097
34.2347
35.4956
36.629
36.8492
38.0774
17.3686
17.4401
17.4542
17.5358
17.6801
17.8549
17.8907
18.1074
18.3833
18.6872
18.7468
19.093
19.5052
19.9379
20.0215
20.4984
21.0493
21.6142
21.7224
22.3343
23.0291
23.7313
23.8654
24.6182
25.4636
26.3104
26.4715
27.37
28.3699
29.3594
29.5472
30.5888
31.7252
32.8441
33.0529
34.1874
35.44
36.5657
36.7846
38.0056
17.3683
17.44
17.4541
17.5353
17.6795
17.8549
17.8907
18.1068
18.3827
18.6872
18.7467
19.0923
19.5045
19.9378
20.0214
20.4974
21.0483
21.614
21.7223
22.3329
23.0277
23.7311
23.8652
24.6162
25.4617
26.3101
26.4712
27.367
28.3669
29.3589
29.5467
30.5841
31.7203
32.8432
33.0521
34.1803
35.4319
36.5644
36.7833
37.9945
17.3638
17.4324
17.4464
17.5285
17.6727
17.848
17.8838
18.1
18.3757
18.6798
18.7393
19.0847
19.4965
19.9292
20.0126
20.4883
21.0385
21.6031
21.7112
22.321
23.0145
23.7162
23.85
24.5998
25.4433
26.2889
26.4496
27.3435
28.3403
29.3279
29.515
30.5493
31.6807
32.7966
33.0044
34.1285
35.372
36.4962
36.7136
37.9169
17.3588
17.4244
17.4381
17.5214
17.6654
17.8405
17.8763
18.0926
18.3682
18.6718
18.7313
19.0766
19.4879
19.9197
20.0031
20.4785
21.0278
21.591
21.699
22.3081
23.0002
23.6999
23.8335
24.5823
25.4234
26.2659
26.4263
27.3184
28.3115
29.2943
29.4809
30.5122
31.6382
32.7463
32.9532
34.0734
35.3082
36.4231
36.639
37.8344
17.3533
17.4158
17.4294
17.5137
17.6575
17.8324
17.8682
18.0848
18.36
18.663
18.7225
19.0679
19.4785
19.9095
19.9928
20.468
21.0161
21.5779
21.6857
22.2943
22.9846
23.6821
23.8156
24.5634
25.4019
26.241
26.4011
27.2915
28.2806
29.2581
29.4441
30.4726
31.5926
32.6923
32.8983
34.0147
35.2399
36.3449
36.5593
37.7468
17.3527
17.4157
17.4293
17.5129
17.6567
17.8322
17.8681
18.0838
18.3591
18.6629
18.7224
19.0667
19.4774
19.9093
19.9927
20.4665
21.0147
21.5777
21.6855
22.2922
22.9826
23.6818
23.8153
24.5604
25.399
26.2406
26.4006
27.2872
28.2761
29.2574
29.4434
30.466
31.5857
32.6911
32.897
34.0048
35.2287
36.343
36.5574
37.7316
17.3464
17.4065
17.4199
17.5045
17.6481
17.8235
17.8593
18.0751
18.3502
18.6534
18.7129
19.057
19.4672
19.8981
19.9814
20.4547
21.0018
21.5633
21.6709
22.2768
22.9656
23.6625
23.7957
24.5394
25.3755
26.2136
26.3731
27.2575
28.2425
29.2182
29.4035
30.4225
31.5363
32.633
32.8378
33.9409
35.1552
36.2591
36.4717
37.6371
17.3395
17.3968
17.41
17.4955
17.6389
17.814
17.8498
18.0659
18.3406
18.6431
18.7026
19.0466
19.4561
19.8859
19.9691
20.442
20.9879
21.5476
21.6551
22.2603
22.9473
23.6416
23.7745
24.517
25.3503
26.1844
26.3435
27.2259
28.2064
29.1761
29.3606
30.3763
31.4837
32.5708
32.7745
33.8732
35.0772
36.1695
36.3803
37.5373
17.332
17.3863
17.3993
17.4859
17.6291
17.8037
17.8396
18.0559
18.3302
18.6319
18.6914
19.0354
19.444
19.8726
19.9557
20.4283
20.9728
21.5306
21.638
22.2426
22.9274
23.6189
23.7516
24.4931
25.3231
26.1528
26.3116
27.1921
28.1677
29.1308
29.3146
30.3272
31.4274
32.5042
32.7067
33.8014
34.9943
36.0739
36.2829
37.4316
17.3237
17.3752
17.388
17.4757
17.6185
17.7926
17.8285
18.0451
18.319
18.6198
18.6793
19.0234
19.4309
19.8581
19.9411
20.4135
20.9564
21.5121
21.6194
22.2235
22.9058
23.5944
23.7269
24.4674
25.2937
26.1188
26.2772
27.156
28.1261
29.0821
29.2652
30.2747
31.3672
32.433
32.6344
33.7251
34.9061
35.972
36.1793
37.3197
17.3225
17.375
17.3878
17.4742
17.6172
17.7924
17.8283
18.0434
18.3175
18.6196
18.679
19.0213
19.4292
19.8578
19.9407
20.4108
20.9542
21.5117
21.6189
22.2199
22.9028
23.5938
23.7262
24.4624
25.2893
26.118
26.2761
27.1488
28.1195
29.0809
29.2637
30.2643
31.357
32.431
32.6321
33.7099
34.89
35.9689
36.1759
37.2977
17.3132
17.363
17.3757
17.4631
17.6057
17.7805
17.8163
18.0317
18.3053
18.6064
18.6657
19.008
19.4149
19.842
19.9248
20.3945
20.9363
21.4917
21.5987
22.1989
22.8795
23.5673
23.6993
24.4341
25.2576
26.0813
26.2389
27.1093
28.0747
29.0285
29.2104
30.2074
31.2924
32.3548
32.5545
33.6275
34.7958
35.8603
36.0651
37.178
17.3031
17.3503
17.3627
17.4511
17.5935
17.7675
17.8034
18.0191
18.2921
18.5921
18.6514
18.9937
19.3994
19.8248
19.9076
20.377
20.9171
21.47
21.5768
22.1764
22.8544
23.5386
23.6703
24.4039
25.2235
26.0417
26.1988
27.0672
28.0267
28.9723
29.1534
30.147
31.2236
32.2734
32.4718
33.5404
34.6959
35.7447
35.9475
37.0518
17.292
17.3366
17.3489
17.4383
17.5803
17.7536
17.7895
18.0056
18.2779
18.5766
18.6359
18.9783
19.3827
19.8063
19.889
20.3583
20.8963
21.4466
21.5533
22.1524
22.8274
23.5076
23.6391
24.3717
25.1868
25.9993
26.1559
27.0224
27.9754
28.9122
29.0925
30.0828
31.1503
32.1866
32.3836
33.4482
34.59
35.622
35.8226
36.9186
17.2903
17.3363
17.3486
17.4363
17.5783
17.7533
17.7891
18.0032
18.2757
18.5763
18.6354
18.9754
19.3802
19.8059
19.8884
20.3545
20.8931
21.446
21.5525
22.1474
22.823
23.5068
23.638
24.3648
25.1806
25.998
26.1544
27.0126
27.9662
28.9104
29.0902
30.0687
31.1363
32.1837
32.3803
33.4279
34.5685
35.6175
35.8178
36.8897
17.278
17.3216
17.3338
17.4223
17.5641
17.7382
17.774
17.9884
18.2603
18.5595
18.6186
18.9584
19.3621
19.7858
19.8682
20.3339
20.8706
21.4207
21.527
22.121
22.7937
23.4734
23.6042
24.3295
25.1411
25.9523
26.108
26.9637
27.911
28.8458
29.0247
29.9992
31.0577
32.0911
32.2861
33.3286
34.4556
35.4868
35.6847
36.7476
17.2647
17.3059
17.318
17.4074
17.5488
17.7219
17.7578
17.9726
18.2437
18.5414
18.6004
18.9404
19.3427
19.7642
19.8465
20.3119
20.8465
21.3934
21.4995
22.0928
22.7624
23.4374
23.5679
24.292
25.0988
25.9032
26.0582
26.9118
27.8521
28.7769
28.9547
29.9255
30.9743
31.9925
32.186
33.2237
34.3364
35.3483
35.5438
36.598
17.2504
17.2892
17.3011
17.3915
17.5324
17.7044
17.7403
17.9556
18.2258
18.5219
18.5809
18.921
19.3218
19.7409
19.8231
20.2884
20.8205
21.364
21.4699
22.0627
22.7287
23.3988
23.529
24.2519
25.0535
25.8505
26.005
26.8567
27.7893
28.7032
28.88
29.8476
30.8857
31.8877
32.0795
33.113
34.2103
35.2016
35.3945
36.4407
17.2479
17.2887
17.3006
17.3886
17.5297
17.704
17.7398
17.9523
18.2228
18.5213
18.5802
18.917
19.3182
19.7402
19.8223
20.2833
20.816
21.3631
21.4688
22.0559
22.7226
23.3976
23.5274
24.2426
25.0448
25.8487
26.0028
26.8436
27.7767
28.7005
28.8769
29.829
30.8669
31.8835
32.0749
33.0866
34.182
35.1952
35.3878
36.4034
17.2321
17.2707
17.2825
17.3712
17.512
17.6851
17.7209
17.9338
18.2035
18.5003
18.559
18.8958
19.2955
19.715
19.7969
20.2576
20.7879
21.3314
21.4368
22.0231
22.6863
23.3559
23.4853
24.1989
24.9961
25.7921
25.9455
26.7837
27.7092
28.6216
28.7968
29.7447
30.7721
31.7718
31.9613
32.9677
34.0477
35.0393
35.2292
36.2356
17.2151
17.2514
17.263
17.3528
17.493
17.6648
17.7005
17.914
18.1828
18.4776
18.5363
18.8732
19.2712
19.6879
19.7696
20.2301
20.7579
21.2973
21.4025
21.9881
22.6474
23.3113
23.4402
24.1525
24.944
25.7317
25.8843
26.7201
27.6375
28.5376
28.7115
29.6556
30.6716
31.6533
31.841
32.8423
33.9062
34.8745
35.0615
36.0595
17.1969
17.2308
17.2423
17.333
17.4728
17.643
17.6787
17.8929
18.1606
18.4531
18.5118
18.8491
19.2452
19.6587
19.7403
20.2008
20.7257
21.2607
21.3656
21.9508
22.6058
23.2634
23.3919
24.1032
24.8884
25.667
25.8189
26.6528
27.5612
28.4481
28.6208
29.5616
30.5653
31.5277
31.7133
32.7105
33.7571
34.7003
34.8844
35.8748
17.1932
17.2301
17.2416
17.3291
17.469
17.6423
17.678
17.8884
18.1564
18.4523
18.5109
18.8436
19.2402
19.6577
19.7392
20.1939
20.7193
21.2594
21.364
21.9416
22.5973
23.2616
23.3898
24.0908
24.8767
25.6643
25.8158
26.6356
27.5444
28.4441
28.6163
29.5374
30.5406
31.5216
31.7068
32.6765
33.7206
34.6913
34.875
35.8276
17.1732
17.2079
17.2193
17.3076
17.447
17.6189
17.6544
17.8654
18.1323
18.426
18.4844
18.8173
19.212
19.6263
19.7075
20.1618
20.6845
21.2199
21.3242
21.9009
22.5524
23.21
23.3377
24.037
24.8169
25.595
25.7455
26.5626
27.4626
28.3485
28.5192
29.436
30.4269
31.3879
31.571
32.535
33.5619
34.5065
34.6872
35.6309
17.1518
17.1842
17.1955
17.2848
17.4237
17.5936
17.6292
17.8408
18.1065
18.3977
18.456
18.7892
19.1819
19.5925
19.6735
20.1277
20.6472
21.1776
21.2815
21.8576
22.5045
23.155
23.282
23.98
24.7532
25.521
25.6706
26.4852
27.3757
28.2468
28.4161
29.3288
30.3066
31.2464
31.4272
32.3859
33.3947
34.3118
34.4893
35.4245
17.1288
17.1588
17.17
17.2604
17.3987
17.5666
17.6021
17.8146
18.079
18.3673
18.4255
18.7592
19.1496
19.5562
19.637
20.0914
20.6074
21.1322
21.2358
21.8116
22.4534
23.096
23.2226
23.9196
24.6855
25.4421
25.5908
26.4035
27.2836
28.1388
28.3066
29.2161
30.1798
31.0967
31.2752
32.2297
33.2193
34.1066
34.2805
35.2089
17.1238
17.1579
17.169
17.2551
17.3935
17.5656
17.601
17.8085
18.0732
18.3661
18.4241
18.7519
19.1427
19.5547
19.6353
20.0822
20.5987
21.1302
21.2335
21.7995
22.442
23.0933
23.2194
23.9033
24.6698
25.4382
25.5863
26.3812
27.2614
28.133
28.3002
29.1852
30.1479
31.0881
31.266
32.1869
33.1731
34.0939
34.2675
35.1501
17.0987
17.1306
17.1416
17.2287
17.3665
17.5364
17.5717
17.78
18.0434
18.3333
18.3912
18.7192
19.1077
19.5156
19.5959
20.0425
20.5556
21.0813
21.1842
21.7493
22.3868
23.0299
23.1554
23.8376
24.5969
25.3536
25.5008
26.2927
27.1627
28.0177
28.1833
29.0637
30.0123
30.9289
31.1045
32.0194
32.9865
33.8766
34.0467
34.9207
17.0719
17.1013
17.1122
17.2005
17.3376
17.5052
17.5404
17.7496
18.0116
18.2982
18.3559
18.6843
19.0704
19.4737
19.5538
20.0003
20.5097
21.029
21.1315
21.6959
22.328
22.9623
23.0871
23.7678
24.5193
25.2636
25.4097
26.199
27.058
27.8954
28.0594
28.9353
29.8691
30.7609
30.934
31.8431
32.79
33.648
33.8145
34.6799
17.0432
17.07
17.0808
17.1706
17.3069
17.4717
17.5069
17.7174
17.9776
18.2605
18.3181
18.6473
19.0306
19.4288
19.5086
19.9556
20.4607
20.9731
21.0751
21.6395
22.2655
22.8901
23.0142
23.6942
24.4371
25.1679
25.3128
26.1004
26.9474
27.7658
27.9279
28.8009
29.7185
30.5837
30.7539
31.6591
32.5846
33.4077
33.5701
34.4294
17.0363
17.0687
17.0795
17.1634
17.2999
17.4703
17.5053
17.7092
17.9698
18.2587
18.3161
18.6375
19.0213
19.4266
19.5061
19.9433
20.4491
20.9702
21.0718
21.6236
22.2502
22.8862
23.0097
23.6732
24.4165
25.1622
25.3065
26.0719
26.9188
27.7577
27.9189
28.7619
29.6781
30.5717
30.7412
31.6058
32.5272
33.3903
33.5523
34.3573
17.0051
17.035
17.0457
17.1309
17.2666
17.4342
17.4692
17.674
17.933
18.2181
18.2753
18.5972
18.9782
19.3782
19.4575
19.8945
20.3961
20.91
21.0112
21.5621
22.1828
22.8087
22.9315
23.5931
24.3281
25.0597
25.2028
25.9652
26.8003
27.6194
27.7789
28.6172
29.5174
30.3835
30.5503
31.4089
32.309
33.1361
33.2942
34.0911
16.9718
16.999
17.0096
17.0962
17.2312
17.3957
17.4306
17.6365
17.8937
18.1746
18.2317
18.5541
18.9322
19.3265
19.4054
19.8425
20.3397
20.8458
20.9464
21.4967
22.111
22.7261
22.8481
23.5081
24.2341
24.9509
25.0928
25.8522
26.6747
27.4732
27.6308
28.4643
29.3475
30.1852
30.3492
31.2013
32.0791
32.8695
33.0234
33.8114
16.9362
16.9605
16.971
17.0595
17.1934
17.3544
17.3892
17.5968
17.8519
18.1281
18.1849
18.5085
18.8832
19.2712
19.3497
19.7875
20.2797
20.7772
20.8773
21.4277
22.0348
22.6383
22.7593
23.4188
24.1348
24.8353
24.9758
25.7338
26.5425
27.3186
27.4739
28.3047
29.1696
29.9765
30.1371
30.9855
31.8396
32.5897
32.739
33.5217
16.9268
16.9585
16.969
17.05
17.1841
17.3522
17.3869
17.586
17.8414
18.1255
18.1821
18.4957
18.8708
19.268
19.3461
19.7715
20.2643
20.773
20.8725
21.4072
22.0149
22.6325
22.7529
23.392
24.1081
24.8274
24.9669
25.6979
26.506
27.3072
27.4615
28.2562
29.119
29.96
30.1197
30.9202
31.7693
32.5661
32.7149
33.4344
16.8882
16.9171
16.9275
17.01
17.1432
17.3078
17.3423
17.5427
17.7962
18.0754
18.1318
18.446
18.8178
19.2084
19.2862
19.7116
20.1995
20.6992
20.7982
21.3321
21.9328
22.5382
22.6578
23.2951
24.0015
24.7037
24.842
25.5699
26.3646
27.1423
27.2947
28.0848
28.9294
29.7385
29.8953
30.6897
31.5154
32.2707
32.4152
33.1272
16.847
16.8727
16.8831
16.9674
17.0996
17.2603
17.2947
17.4966
17.7478
18.0218
18.078
18.393
18.7613
19.1448
19.2222
19.6477
20.1303
20.6206
20.719
21.2521
21.8454
22.4379
22.5566
23.192
23.8881
24.5728
24.7096
25.4341
26.2147
26.9684
27.1186
27.9032
28.729
29.5059
29.6594
30.4465
31.2476
31.9616
32.1014
32.8039
16.8032
16.8254
16.8356
16.9223
17.0534
17.2096
17.2439
17.4477
17.6965
17.9646
18.0204
18.337
18.7013
19.0769
19.1539
19.5803
20.057
20.5368
20.6345
21.168
21.753
22.3314
22.4489
23.084
23.7686
24.4341
24.5692
25.2924
26.0573
26.785
26.9325
27.7146
28.5197
29.2614
29.411
30.1947
30.9696
31.6381
31.7725
32.4703
16.7908
16.8226
16.8328
16.9099
17.0411
17.2065
17.2405
17.4337
17.6828