/*--------------------------------*- C++ -*----------------------------------*\
| =========                 |                                                 |
| \\      /  F ield         | OpenFOAM: The Open Source CFD Toolbox           |
|  \\    /   O peration     | Version:  2506                                  |
|   \\  /    A nd           | Website:  www.openfoam.com                      |
|    \\/     M anipulation  |                                                 |
\*---------------------------------------------------------------------------*/
FoamFile
{
    version     2.0;
    format      ascii;
    arch        "LSB;label=32;scalar=64";
    class       volVectorField;
    location    "0";
    object      U;
}
// * * * * * * * * * * * * * * * * * * * * * * * * * * * * * * * * * * * * * //

dimensions      [0 1 -1 0 0 0 0];

internalField   nonuniform List<vector> 
72100
(
(1.0169 -0.00166063 0)
(0.889288 -0.000204946 0)
(0.889925 -9.71951e-05 0)
(0.985242 9.85617e-05 0)
(0.970891 0.000109644 0)
(0.862811 9.85733e-05 0)
(0.864558 9.98109e-05 0)
(0.948394 0.000132382 0)
(0.929132 0.000142144 0)
(0.822247 0.000126267 0)
(0.825516 0.000128256 0)
(0.901839 0.000167904 0)
(0.877913 0.000178936 0)
(0.773022 0.000158479 0)
(0.776922 0.000161529 0)
(0.844387 0.000211369 0)
(0.816064 0.000225071 0)
(0.713595 0.000199867 0)
(0.717188 0.000204133 0)
(0.773829 0.000268318 0)
(0.740801 0.000287123 0)
(0.640934 0.000255758 0)
(0.643271 0.0002613 0)
(0.686403 0.000343205 0)
(0.648069 0.000367769 0)
(0.551324 0.000328737 0)
(0.551558 0.000335464 0)
(0.577811 0.000443284 0)
(0.532795 0.000476377 0)
(0.4393 0.000427185 0)
(0.436724 0.000434325 0)
(0.442044 0.000569014 0)
(0.38795 0.000615166 0)
(0.300272 0.00053523 0)
(0.294591 0.000541863 0)
(0.273067 0.000713971 0)
(0.2156 0.000704427 0)
(0.131638 0.000632189 0)
(0.124713 0.000626442 0)
(0.0955827 0.000648906 6.86549e-25)
(1.58247 -0.00236607 0)
(1.58808 -0.00042169 0)
(1.58796 -0.000185085 0)
(1.5789 0.000233131 0)
(1.56242 0.000281366 0)
(1.5474 0.000300923 0)
(1.54405 0.000305122 0)
(1.52235 0.000342502 0)
(1.50155 0.000372058 0)
(1.48135 0.000389687 0)
(1.47716 0.000394738 0)
(1.45059 0.000437617 0)
(1.42502 0.000472268 0)
(1.39942 0.000492828 0)
(1.39432 0.000499395 0)
(1.36249 0.000552975 0)
(1.33113 0.000597053 0)
(1.29908 0.000624442 0)
(1.29284 0.000633295 0)
(1.25465 0.000704127 0)
(1.21562 0.000764389 0)
(1.17512 0.000801566 0)
(1.16738 0.000813113 0)
(1.12109 0.000903613 0)
(1.07217 0.000981879 0)
(1.02108 0.00103346 0)
(1.01141 0.00104878 0)
(0.954796 0.00117187 0)
(0.892695 0.00127683 0)
(0.827312 0.0013467 0)
(0.815089 0.00136542 0)
(0.74552 0.0015186 0)
(0.66582 0.00165248 0)
(0.584707 0.00171001 0)
(0.569338 0.00172922 0)
(0.482417 0.00191038 0)
(0.392177 0.00196005 0)
(0.288227 0.00199971 0)
(0.272086 0.00199356 0)
(0.196693 0.00194978 0)
(1.59119 -0.00237799 0)
(1.58888 -0.000421723 0)
(1.58879 -0.00018512 0)
(1.58806 0.000235233 0)
(1.57074 0.000283734 0)
(1.54823 0.000301187 0)
(1.54494 0.000305406 0)
(1.53244 0.000346084 0)
(1.50977 0.000375281 0)
(1.48219 0.000390051 0)
(1.47809 0.000395142 0)
(1.46143 0.000442775 0)
(1.43315 0.000476531 0)
(1.40027 0.00049332 0)
(1.39529 0.000499955 0)
(1.37381 0.000560199 0)
(1.33917 0.000602737 0)
(1.29993 0.00062511 0)
(1.29382 0.000634064 0)
(1.26607 0.000714155 0)
(1.22352 0.00077217 0)
(1.17595 0.000802489 0)
(1.16835 0.000814178 0)
(1.13213 0.000917409 0)
(1.0798 0.000992712 0)
(1.02187 0.00103475 0)
(1.01232 0.00105025 0)
(0.964849 0.00119073 0)
(0.899802 0.00129234 0)
(0.828026 0.00134853 0)
(0.815887 0.00136747 0)
(0.753865 0.001544 0)
(0.671934 0.00167492 0)
(0.585282 0.00171258 0)
(0.569959 0.00173199 0)
(0.488237 0.00194293 0)
(0.396577 0.00199083 0)
(0.288573 0.00200301 0)
(0.272441 0.00199695 0)
(0.199522 0.00198468 0)
(2.65937 -0.00361476 0)
(2.66329 -0.000620812 0)
(2.66283 -0.000250401 0)
(2.65331 0.000530943 0)
(2.6285 0.00067038 0)
(2.60189 0.000735784 0)
(2.59668 0.000747669 0)
(2.56864 0.000830115 0)
(2.53481 0.00090452 0)
(2.49977 0.000963839 0)
(2.49312 0.000977007 0)
(2.45782 0.0010699 0)
(2.41544 0.00115588 0)
(2.37172 0.00122594 0)
(2.36355 0.00124248 0)
(2.32021 0.00135897 0)
(2.26794 0.00146769 0)
(2.21383 0.00155933 0)
(2.2038 0.00158144 0)
(2.15035 0.00173774 0)
(2.08542 0.00188628 0)
(2.01768 0.00200827 0)
(2.0052 0.00203718 0)
(1.93836 0.0022389 0)
(1.85743 0.00243233 0)
(1.77251 0.00259874 0)
(1.75688 0.00263795 0)
(1.67234 0.00291633 0)
(1.57011 0.0031798 0)
(1.46184 0.00340192 0)
(1.44195 0.00345189 0)
(1.33425 0.00380767 0)
(1.20326 0.00414107 0)
(1.06828 0.00436653 0)
(1.04303 0.00441952 0)
(0.903714 0.00481952 0)
(0.752037 0.00503318 0)
(0.579234 0.00513745 0)
(0.551651 0.00514218 0)
(0.420251 0.00520655 -1.19062e-20)
(3.68612 -0.00451328 0)
(3.69767 -0.000738778 0)
(3.69681 -0.000255312 0)
(3.67755 0.000922572 0)
(3.64862 0.00120482 0)
(3.62304 0.00135433 0)
(3.61635 0.00137915 0)
(3.57299 0.00152301 0)
(3.5311 0.00166688 0)
(3.49396 0.00179838 0)
(3.48517 0.00182391 0)
(3.43161 0.00197951 0)
(3.37866 0.00214474 0)
(3.32997 0.00230103 0)
(3.31905 0.0023325 0)
(3.25453 0.00252581 0)
(3.18874 0.00273493 0)
(3.12626 0.00293891 0)
(3.11282 0.00298086 0)
(3.03477 0.00324184 0)
(2.95232 0.00352827 0)
(2.87167 0.00379957 0)
(2.85494 0.00385457 0)
(2.7592 0.00419209 0)
(2.65534 0.00456734 0)
(2.55145 0.00493856 0)
(2.53048 0.00501422 0)
(2.41133 0.00548619 0)
(2.27833 0.00600315 0)
(2.14227 0.00650365 0)
(2.1155 0.00660279 0)
(1.96514 0.00721925 0)
(1.79198 0.00787736 0)
(1.61686 0.00844241 0)
(1.58249 0.00855118 0)
(1.38893 0.00923325 0)
(1.1812 0.0097676 0)
(0.950667 0.0100742 0)
(0.91159 0.0101105 0)
(0.717889 0.010368 1.16944e-20)
(4.60258 -0.00512854 0)
(4.61724 -0.000775948 0)
(4.61614 -0.000201033 0)
(4.5918 0.00136237 0)
(4.56161 0.00183319 0)
(4.53714 0.00210078 0)
(4.52969 0.00214413 0)
(4.47679 0.00237245 0)
(4.42986 0.00260816 0)
(4.39124 0.00283383 0)
(4.38114 0.00287555 0)
(4.31523 0.00311243 0)
(4.25519 0.00338046 0)
(4.203 0.00364851 0)
(4.19031 0.00369936 0)
(4.11079 0.00399091 0)
(4.03569 0.00432999 0)
(3.96747 0.00468021 0)
(3.95175 0.00474802 0)
(3.85567 0.00514246 0)
(3.76092 0.00560762 0)
(3.67157 0.00607454 0)
(3.65193 0.00616375 0)
(3.53439 0.00667459 0)
(3.41415 0.00728869 0)
(3.29741 0.0079334 0)
(3.27266 0.0080577 0)
(3.12661 0.00877926 0)
(2.97104 0.0096355 0)
(2.8157 0.0105183 0)
(2.78385 0.0106853 0)
(2.59916 0.0116479 0)
(2.39382 0.0127562 0)
(2.18908 0.0138214 0)
(2.14757 0.0140131 0)
(1.90846 0.0150885 0)
(1.65398 0.0161317 0)
(1.37751 0.0168066 0)
(1.32828 0.0169069 0)
(1.07496 0.0175136 0)
(4.61094 -0.0051334 0)
(4.61801 -0.000775915 0)
(4.61693 -0.000200995 0)
(4.60057 0.00136712 0)
(4.56965 0.00183955 0)
(4.53796 0.00210156 0)
(4.53056 0.00214497 0)
(4.48669 0.00238329 0)
(4.438 0.00261812 0)
(4.39209 0.00283497 0)
(4.38208 0.00287683 0)
(4.32613 0.00312876 0)
(4.26347 0.0033941 0)
(4.20388 0.0036501 0)
(4.19131 0.00370117 0)
(4.12253 0.00401433 0)
(4.04415 0.00434858 0)
(3.96838 0.00468242 0)
(3.9528 0.00475057 0)
(3.868 0.0051756 0)
(3.76961 0.00563354 0)
(3.67251 0.00607765 0)
(3.65301 0.00616734 0)
(3.54697 0.00672102 0)
(3.42306 0.00732548 0)
(3.29837 0.00793784 0)
(3.27376 0.00806277 0)
(3.13898 0.00884426 0)
(2.98011 0.00968966 0)
(2.81665 0.0105248 0)
(2.78492 0.0106926 0)
(2.61073 0.0117389 0)
(2.40281 0.0128378 0)
(2.18999 0.013831 0)
(2.14855 0.0140235 0)
(1.91843 0.015212 0)
(1.6623 0.0162543 0)
(1.37829 0.01682 0)
(1.32908 0.0169207 0)
(1.0822 0.0176681 0)
(5.37621 -0.00552049 0)
(5.38204 -0.000746457 0)
(5.38084 -0.000100533 0)
(5.36344 0.00181398 0)
(5.33332 0.00250724 0)
(5.302 0.00291564 0)
(5.29441 0.00298242 0)
(5.2465 0.00333075 0)
(5.19539 0.00367706 0)
(5.14756 0.00400233 0)
(5.13697 0.00406346 0)
(5.07441 0.00441751 0)
(5.00768 0.00480383 0)
(4.94472 0.00518585 0)
(4.93126 0.00525978 0)
(4.85366 0.00569522 0)
(4.76963 0.00618102 0)
(4.68905 0.00667877 0)
(4.67224 0.00677735 0)
(4.57632 0.00736565 0)
(4.47043 0.00803037 0)
(4.36692 0.00869556 0)
(4.3458 0.0088255 0)
(4.226 0.0095947 0)
(4.0919 0.0104803 0)
(3.95826 0.0114061 0)
(3.93145 0.011589 0)
(3.77925 0.0126827 0)
(3.60594 0.0139333 0)
(3.4295 0.0152163 0)
(3.39468 0.0154674 0)
(3.19748 0.0169589 0)
(2.96813 0.0186154 0)
(2.73495 0.0202263 0)
(2.6889 0.0205276 0)
(2.42665 0.0222596 0)
(2.13638 0.0240016 0)
(1.81901 0.025097 0)
(1.76229 0.0253027 0)
(1.46693 0.0266255 0)
(5.99911 -0.00573075 0)
(6.00225 -0.000665613 0)
(6.00088 3.49411e-05 0)
(5.98379 0.0022496 0)
(5.95533 0.0031819 0)
(5.92461 0.00376091 0)
(5.91711 0.00385549 0)
(5.86816 0.00433485 0)
(5.81625 0.00481099 0)
(5.76695 0.00526047 0)
(5.7561 0.00534361 0)
(5.69029 0.0058139 0)
(5.62126 0.00633694 0)
(5.55548 0.00686009 0)
(5.54152 0.00695952 0)
(5.45896 0.00753139 0)
(5.37137 0.00818629 0)
(5.2868 0.00886448 0)
(5.26927 0.008996 0)
(5.16684 0.00976339 0)
(5.0563 0.0106554 0)
(4.94792 0.011563 0)
(4.92589 0.0117375 0)
(4.79792 0.0127462 0)
(4.65747 0.0139438 0)
(4.51755 0.0152151 0)
(4.48946 0.0154623 0)
(4.3268 0.0169033 0)
(4.14468 0.0186085 0)
(3.95965 0.0203936 0)
(3.923 0.0207382 0)
(3.71169 0.0227357 0)
(3.46909 0.0250327 0)
(3.22261 0.0273617 0)
(3.17372 0.0277908 0)
(2.89097 0.0301731 0)
(2.57791 0.0327769 0)
(2.23817 0.0345713 0)
(2.17637 0.0349184 0)
(1.84545 0.0370107 0)
(6.51082 -0.00580746 0)
(6.51156 -0.000538749 0)
(6.50997 0.000203429 0)
(6.49278 0.00267397 0)
(6.4661 0.00385172 0)
(6.43674 0.00462009 0)
(6.42947 0.00474606 0)
(6.38054 0.00537496 0)
(6.32888 0.0059991 0)
(6.27921 0.0065894 0)
(6.26828 0.00669733 0)
(6.20056 0.00729699 0)
(6.13038 0.00797193 0)
(6.06299 0.00865162 0)
(6.04873 0.00877907 0)
(5.9628 0.00949927 0)
(5.87297 0.0103394 0)
(5.78577 0.011214 0)
(5.76775 0.0113811 0)
(5.66078 0.0123372 0)
(5.5472 0.0134729 0)
(5.43552 0.0146435 0)
(5.41285 0.0148659 0)
(5.27927 0.0161296 0)
(5.13463 0.0176632 0)
(4.99048 0.0193068 0)
(4.96157 0.0196227 0)
(4.79199 0.0214328 0)
(4.60436 0.0236289 0)
(4.41393 0.0259611 0)
(4.37613 0.0264071 0)
(4.15577 0.0289515 0)
(3.90497 0.0319517 0)
(3.6501 0.0350807 0)
(3.59942 0.0356518 0)
(3.3035 0.0387625 0)
(2.97551 0.0423567 0)
(2.6212 0.0449967 0)
(2.55591 0.0455136 0)
(2.19977 0.0485412 0)
(6.51639 -0.00580743 0)
(6.51208 -0.000538621 0)
(6.5105 0.000203579 0)
(6.49861 0.00267922 0)
(6.47147 0.00385948 0)
(6.43729 0.00462113 0)
(6.43006 0.00474718 0)
(6.38722 0.00539014 0)
(6.3344 0.00601353 0)
(6.2798 0.00659111 0)
(6.26892 0.00669923 0)
(6.20803 0.00732156 0)
(6.13609 0.00799271 0)
(6.06361 0.00865409 0)
(6.04942 0.00878188 0)
(5.97096 0.00953541 0)
(5.8789 0.0103683 0)
(5.78642 0.0112175 0)
(5.76849 0.0113851 0)
(5.66949 0.0123886 0)
(5.5534 0.0135132 0)
(5.4362 0.0146484 0)
(5.41364 0.0148716 0)
(5.28836 0.0162018 0)
(5.14116 0.0177207 0)
(4.99119 0.0193138 0)
(4.96238 0.0196307 0)
(4.80126 0.0215343 0)
(4.61129 0.0237139 0)
(4.41468 0.0259714 0)
(4.37697 0.0264186 0)
(4.16497 0.0290955 0)
(3.91236 0.0320823 0)
(3.65088 0.0350964 0)
(3.60026 0.0356688 0)
(3.31231 0.0389654 0)
(2.98325 0.0425625 0)
(2.62198 0.0450202 0)
(2.55671 0.0455378 0)
(2.2075 0.0488175 0)
(6.94442 -0.00578494 0)
(6.9388 -0.000370664 0)
(6.93701 0.000404278 0)
(6.92399 0.00309981 0)
(6.89837 0.00452173 0)
(6.8664 0.0054829 0)
(6.85945 0.00564289 0)
(6.81657 0.00645152 0)
(6.76486 0.00724008 0)
(6.7113 0.00797359 0)
(6.70048 0.00810936 0)
(6.6379 0.00887634 0)
(6.56591 0.00971408 0)
(6.49341 0.0105455 0)
(6.47908 0.010704 0)
(6.39762 0.0116208 0)
(6.3046 0.0126538 0)
(6.21127 0.0137132 0)
(6.19303 0.0139189 0)
(6.08994 0.0151267 0)
(5.97213 0.0165101 0)
(5.8534 0.0179234 0)
(5.83036 0.0181975 0)
(5.70012 0.0198043 0)
(5.5503 0.0216787 0)
(5.3981 0.0236612 0)
(5.36869 0.0240505 0)
(5.20181 0.0263497 0)
(5.00843 0.0290484 0)
(4.80901 0.0318815 0)
(4.77055 0.0324369 0)
(4.55173 0.0357067 0)
(4.29416 0.0394489 0)
(4.02805 0.0433208 0)
(3.97626 0.0440478 0)
(3.67899 0.0481566 0)
(3.34011 0.0528533 0)
(2.96979 0.0562679 0)
(2.90207 0.0569807 0)
(2.53431 0.0613679 0)
(7.30946 -0.00569577 0)
(7.30309 -0.000166036 0)
(7.30112 0.000636461 0)
(7.28679 0.00352366 0)
(7.26227 0.00517649 0)
(7.23244 0.00634058 0)
(7.22578 0.00653569 0)
(7.18326 0.00752035 0)
(7.13308 0.0084887 0)
(7.08108 0.00939271 0)
(7.07042 0.00955871 0)
(7.00699 0.0104826 0)
(6.93564 0.0115012 0)
(6.86387 0.0125171 0)
(6.84953 0.0127086 0)
(6.76611 0.0137998 0)
(6.673 0.0150479 0)
(6.57972 0.016333 0)
(6.56133 0.0165793 0)
(6.45532 0.0180019 0)
(6.33669 0.0196607 0)
(6.21741 0.0213712 0)
(6.19409 0.0216995 0)
(6.06008 0.0235949 0)
(5.90876 0.0258458 0)
(5.75546 0.0282418 0)
(5.72562 0.0287067 0)
(5.55424 0.0314145 0)
(5.3587 0.0346574 0)
(5.15782 0.0380986 0)
(5.11886 0.0387674 0)
(4.895 0.0426534 0)
(4.63446 0.0471963 0)
(4.36593 0.0519901 0)
(4.3134 0.0528827 0)
(4.00954 0.0578552 0)
(3.66422 0.0637481 0)
(3.2884 0.0682474 0)
(3.21894 0.069179 0)
(2.83719 0.0747968 0)
(7.62605 -0.00556292 0)
(7.61936 6.83739e-05 0)
(7.61725 0.000895984 0)
(7.6017 0.00395541 0)
(7.578 0.00582751 0)
(7.55007 0.00719356 0)
(7.54368 0.00742408 0)
(7.50161 0.00859094 0)
(7.45308 0.00974973 0)
(7.40293 0.010836 0)
(7.39248 0.0110344 0)
(7.32878 0.0121259 0)
(7.25857 0.0133383 0)
(7.18806 0.0145519 0)
(7.17381 0.0147788 0)
(7.0892 0.0160544 0)
(6.99666 0.0175309 0)
(6.90414 0.0190569 0)
(6.88572 0.0193464 0)
(6.77773 0.0209947 0)
(6.6591 0.0229452 0)
(6.5401 0.0249709 0)
(6.51664 0.0253563 0)
(6.37992 0.027552 0)
(6.22809 0.0301998 0)
(6.07466 0.0330325 0)
(6.04457 0.033577 0)
(5.86979 0.0367064 0)
(5.67311 0.0405183 0)
(5.47181 0.0445974 0)
(5.43252 0.045384 0)
(5.20485 0.049904 0)
(4.94271 0.0552863 0)
(4.67333 0.0610573 0)
(4.62035 0.0621253 0)
(4.31183 0.068007 0)
(3.96243 0.0751792 0)
(3.58374 0.0808837 0)
(3.51307 0.0820564 0)
(3.12066 0.0890197 -3.78344e-21)
(7.63036 -0.00556025 0)
(7.61976 6.86368e-05 0)
(7.61767 0.000896295 0)
(7.60621 0.00396202 0)
(7.58215 0.00583665 0)
(7.5505 0.0071948 0)
(7.54414 0.00742542 0)
(7.50679 0.00860961 0)
(7.45738 0.00976801 0)
(7.40339 0.0108382 0)
(7.39299 0.0110369 0)
(7.33464 0.0121583 0)
(7.26308 0.0133661 0)
(7.18855 0.0145553 0)
(7.17437 0.0147827 0)
(7.09571 0.0161037 0)
(7.00144 0.0175707 0)
(6.90466 0.0190617 0)
(6.88633 0.019352 0)
(6.7848 0.0210659 0)
(6.66419 0.0230013 0)
(6.54067 0.0249778 0)
(6.51729 0.0253643 0)
(6.38744 0.0276527 0)
(6.23355 0.0302803 0)
(6.07526 0.0330423 0)
(6.04526 0.0335883 0)
(5.87761 0.0368481 0)
(5.67903 0.040637 0)
(5.47246 0.0446119 0)
(5.43324 0.0454004 0)
(5.21281 0.0501043 0)
(4.94919 0.0554685 0)
(4.67403 0.0610796 0)
(4.62111 0.0621494 0)
(4.31978 0.0682921 0)
(3.96958 0.0754708 0)
(3.58449 0.0809179 0)
(3.51384 0.0820917 0)
(3.12818 0.0894223 -3.79819e-21)
(7.90909 -0.00539788 0)
(7.89879 0.000326246 0)
(7.89662 0.00117749 0)
(7.88394 0.00440388 0)
(7.86061 0.00648843 0)
(7.83087 0.0080461 0)
(7.82472 0.00831221 0)
(7.78742 0.0096828 0)
(7.73962 0.0110396 0)
(7.68775 0.0123001 0)
(7.67758 0.0125328 0)
(7.61894 0.0138326 0)
(7.54885 0.0152452 0)
(7.47615 0.0166418 0)
(7.46212 0.0169066 0)
(7.38252 0.0184247 0)
(7.28939 0.0201323 0)
(7.19412 0.0218752 0)
(7.17585 0.0222111 0)
(7.07275 0.0241662 0)
(6.95289 0.0264078 0)
(6.83053 0.0287122 0)
(6.80714 0.0291584 0)
(6.67513 0.0317659 0)
(6.52158 0.034808 0)
(6.36418 0.0380234 0)
(6.33409 0.0386527 0)
(6.1638 0.0423597 0)
(5.96509 0.0467404 0)
(5.7592 0.0513733 0)
(5.71982 0.052284 0)
(5.49639 0.0576555 0)
(5.23226 0.0638923 0)
(4.95758 0.0705146 0)
(4.90445 0.0717681 0)
(4.59981 0.0788834 0)
(4.24731 0.0874164 0)
(3.86147 0.094156 0)
(3.79004 0.0955916 0)
(3.39625 0.104406 3.39752e-21)
(8.15849 -0.00521078 0)
(8.14876 0.000601711 0)
(8.14657 0.0014753 0)
(8.13294 0.00485316 0)
(8.11029 0.00714296 0)
(8.0823 0.0088997 0)
(8.07632 0.00920139 0)
(8.03892 0.0107608 0)
(7.99256 0.0123215 0)
(7.94274 0.0137794 0)
(7.93279 0.0140475 0)
(7.87394 0.015532 0)
(7.80536 0.0171588 0)
(7.73461 0.018773 0)
(7.72077 0.0190769 0)
(7.64056 0.0207989 0)
(7.54886 0.0227582 0)
(7.45546 0.024766 0)
(7.43734 0.0251496 0)
(7.33321 0.0273541 0)
(7.21459 0.0299169 0)
(7.0939 0.0325664 0)
(7.07058 0.033075 0)
(6.93705 0.03601 0)
(6.78446 0.0394849 0)
(6.62861 0.0431762 0)
(6.59855 0.0438921 0)
(6.42639 0.0480567 0)
(6.22836 0.0530538 0)
(6.02402 0.0583762 0)
(5.98463 0.0594141 0)
(5.75905 0.0654661 0)
(5.4954 0.0726095 0)
(5.22225 0.0802917 0)
(5.16909 0.0817364 0)
(4.86225 0.0898555 0)
(4.50891 0.0998069 0)
(4.12412 0.10795 0)
(4.05221 0.109665 0)
(3.65214 0.120046 0)
(8.38468 -0.0050003 0)
(8.37571 0.000891167 0)
(8.37353 0.00178553 0)
(8.35904 0.00530871 0)
(8.33704 0.00780167 0)
(8.31069 0.00975835 0)
(8.30486 0.0100961 0)
(8.26726 0.0118461 0)
(8.22224 0.0136156 0)
(8.17441 0.0152777 0)
(8.16465 0.0155821 0)
(8.10558 0.0172569 0)
(8.03849 0.0191056 0)
(7.96973 0.0209464 0)
(7.95608 0.0212907 0)
(7.87542 0.0232221 0)
(7.78527 0.0254426 0)
(7.69391 0.0277263 0)
(7.67598 0.0281595 0)
(7.57118 0.0306198 0)
(7.45417 0.0335176 0)
(7.33552 0.0365291 0)
(7.31237 0.0371026 0)
(7.1778 0.0403733 0)
(7.02665 0.0442979 0)
(6.87284 0.0484864 0)
(6.84291 0.049292 0)
(6.6695 0.0539238 0)
(6.47281 0.0595595 0)
(6.27071 0.0656014 0)
(6.23145 0.0667709 0)
(6.00449 0.073517 0)
(5.7422 0.0815992 0)
(5.47152 0.0903868 0)
(5.4185 0.0920306 0)
(5.11043 0.101182 0)
(4.7576 0.112609 0)
(4.37547 0.122269 0)
(4.30336 0.12428 0)
(3.89862 0.136293 -3.61934e-25)
(8.5921 -0.00476839 0)
(8.58397 0.00119276 0)
(8.58179 0.00210654 0)
(8.56646 0.00576991 0)
(8.54503 0.00846574 0)
(8.52023 0.0106238 0)
(8.51454 0.0109979 0)
(8.47671 0.0129405 0)
(8.43298 0.014923 0)
(8.38708 0.0167956 0)
(8.37751 0.0171376 0)
(8.31823 0.0190072 0)
(8.25262 0.0210855 0)
(8.18589 0.0231615 0)
(8.17242 0.0235475 0)
(8.09138 0.0256935 0)
(8.0028 0.0281833 0)
(7.91356 0.0307526 0)
(7.89583 0.0312366 0)
(7.79057 0.0339577 0)
(7.67537 0.0372022 0)
(7.55905 0.0405913 0)
(7.53609 0.0412322 0)
(7.40091 0.0448467 0)
(7.25154 0.049237 0)
(7.10017 0.0539425 0)
(7.07044 0.0548409 0)
(6.89628 0.0599489 0)
(6.70144 0.0662433 0)
(6.50212 0.0730325 0)
(6.46309 0.0743377 0)
(6.23542 0.0817905 0)
(5.97522 0.0908405 0)
(5.70781 0.100776 0)
(5.65509 0.102626 0)
(5.34665 0.112837 0)
(4.99555 0.12579 0)
(4.61744 0.137069 0)
(4.54543 0.139393 0)
(4.13763 0.153102 0)
(8.59583 -0.00476464 0)
(8.58432 0.00119343 0)
(8.58216 0.00210712 0)
(8.57037 0.00577902 0)
(8.54863 0.00847796 0)
(8.5206 0.0106255 0)
(8.51495 0.0109997 0)
(8.48119 0.0129649 0)
(8.43671 0.0149474 0)
(8.38748 0.0167987 0)
(8.37795 0.017141 0)
(8.32331 0.0190511 0)
(8.25656 0.0211239 0)
(8.18632 0.0231662 0)
(8.17292 0.0235528 0)
(8.09706 0.0257618 0)
(8.007 0.0282392 0)
(7.91403 0.0307595 0)
(7.89637 0.0312445 0)
(7.79684 0.0340577 0)
(7.67993 0.0372822 0)
(7.55957 0.0406013 0)
(7.53669 0.0412436 0)
(7.40773 0.04499 0)
(7.25655 0.0493529 0)
(7.10074 0.053957 0)
(7.0711 0.0548573 0)
(6.90357 0.0601515 0)
(6.70703 0.066415 0)
(6.50275 0.073054 0)
(6.4638 0.0743614 0)
(6.24312 0.0820775 0)
(5.98157 0.0911041 0)
(5.70852 0.100809 0)
(5.65586 0.102661 0)
(5.35471 0.113248 0)
(5.00292 0.126215 0)
(4.61825 0.13712 0)
(4.54627 0.139446 0)
(4.14589 0.1537 0)
(8.78759 -0.00451512 0)
(8.77703 0.00150665 0)
(8.77486 0.0024387 0)
(8.76212 0.00624788 0)
(8.7409 0.00914968 0)
(8.71444 0.0114992 0)
(8.70891 0.0119099 0)
(8.67475 0.0140702 0)
(8.63152 0.01627 0)
(8.58429 0.0183366 0)
(8.57494 0.0187174 0)
(8.51998 0.0208289 0)
(8.45477 0.0231385 0)
(8.38668 0.0254225 0)
(8.37347 0.0258522 0)
(8.29715 0.0282842 0)
(8.20877 0.0310393 0)
(8.11805 0.0338515 0)
(8.10059 0.0343885 0)
(8.00051 0.0374706 0)
(7.88556 0.0410509 0)
(7.76781 0.0447573 0)
(7.74519 0.0454691 0)
(7.61572 0.0495741 0)
(7.46666 0.0544172 0)
(7.31369 0.059551 0)
(7.28431 0.0605466 0)
(7.11627 0.0663355 0)
(6.92202 0.0732766 0)
(6.72107 0.0806794 0)
(6.68244 0.082126 0)
(6.46147 0.0905739 0)
(6.20261 0.100596 0)
(5.9336 0.111473 0)
(5.88138 0.113537 0)
(5.58054 0.125226 0)
(5.23152 0.139768 0)
(4.85204 0.152363 0)
(4.78043 0.155015 0)
(4.37872 0.171058 0)
(8.96619 -0.00424998 0)
(8.95663 0.00183107 0)
(8.95447 0.002781 0)
(8.94074 0.00672503 0)
(8.92 0.00982943 0)
(8.89505 0.0123823 0)
(8.88963 0.0128299 0)
(8.855 0.0151862 0)
(8.81295 0.0176069 0)
(8.76768 0.0198944 0)
(8.75852 0.0203147 0)
(8.70322 0.022631 0)
(8.63956 0.0251838 0)
(8.57364 0.0277183 0)
(8.56063 0.0281925 0)
(8.48391 0.0308516 0)
(8.39726 0.0338932 0)
(8.30886 0.0370077 0)
(8.2916 0.0375982 0)
(8.19102 0.0409514 0)
(8.07805 0.0448954 0)
(7.96303 0.0490021 0)
(7.94067 0.0497854 0)
(7.81087 0.0542532 0)
(7.66413 0.0595912 0)
(7.51426 0.0652741 0)
(7.48518 0.0663677 0)
(7.31688 0.0726559 0)
(7.12526 0.0802926 0)
(6.92801 0.0884858 0)
(6.88977 0.0900752 0)
(6.66885 0.0992602 0)
(6.41318 0.110303 0)
(6.14881 0.122392 0)
(6.09712 0.124673 0)
(5.79711 0.137477 0)
(5.45171 0.153631 0)
(5.07844 0.168006 0)
(5.00741 0.170998 0)
(4.60566 0.188864 0)
(9.1336 -0.00397148 0)
(9.12505 0.00216643 0)
(9.1229 0.00313407 0)
(9.10819 0.00721153 0)
(9.08788 0.0105185 0)
(9.06438 0.0132766 0)
(9.05906 0.0137614 0)
(9.02392 0.0163145 0)
(8.98298 0.0189591 0)
(8.93961 0.0214729 0)
(8.93062 0.0219335 0)
(8.87499 0.0244575 0)
(8.81284 0.0272598 0)
(8.74909 0.0300529 0)
(8.73627 0.0305728 0)
(8.65921 0.033463 0)
(8.57432 0.0367993 0)
(8.48829 0.0402273 0)
(8.47125 0.0408727 0)
(8.37025 0.0445004 0)
(8.25926 0.0488152 0)
(8.14702 0.0533334 0)
(8.12493 0.0541897 0)
(7.99492 0.0590245 0)
(7.85064 0.0648703 0)
(7.70403 0.0711204 0)
(7.67528 0.0723146 0)
(7.50695 0.0791071 0)
(7.3182 0.0874558 0)
(7.12492 0.0964641 0)
(7.08711 0.0981996 0)
(6.86658 0.108128 0)
(6.61449 0.120213 0)
(6.3552 0.133548 0)
(6.30412 0.136052 0)
(6.00539 0.149985 0)
(5.66433 0.167781 0)
(5.29806 0.184015 0)
(5.22779 0.187358 0)
(4.82709 0.207081 2.93315e-25)
(9.13728 -0.00396577 0)
(9.1254 0.00216728 0)
(9.12326 0.00313484 0)
(9.11206 0.00722315 0)
(9.09144 0.0105339 0)
(9.06475 0.0132787 0)
(9.05946 0.0137636 0)
(9.02833 0.016345 0)
(8.98666 0.0189897 0)
(8.94001 0.0214768 0)
(8.93106 0.0219377 0)
(8.87999 0.0245126 0)
(8.81673 0.0273084 0)
(8.74952 0.030059 0)
(8.73677 0.0305796 0)
(8.66482 0.0335499 0)
(8.5785 0.0368709 0)
(8.48876 0.0402363 0)
(8.4718 0.040883 0)
(8.37648 0.0446283 0)
(8.26381 0.048918 0)
(8.14754 0.0533464 0)
(8.12554 0.0542045 0)
(8.00174 0.0592077 0)
(7.85569 0.0650195 0)
(7.70461 0.0711393 0)
(7.67595 0.072336 0)
(7.51435 0.0793668 0)
(7.32393 0.0876772 0)
(7.12558 0.0964922 0)
(7.08785 0.0982306 0)
(6.87455 0.108496 0)
(6.62114 0.120553 0)
(6.35595 0.133591 0)
(6.30495 0.136098 0)
(6.01396 0.150511 0)
(5.67228 0.168327 0)
(5.29895 0.184083 0)
(5.22872 0.187427 0)
(4.83628 0.207854 2.92056e-25)
(9.29499 -0.00367725 0)
(9.2842 0.0025136 0)
(9.28206 0.00349868 0)
(9.26983 0.00772057 0)
(9.24961 0.0112348 0)
(9.22437 0.0141857 0)
(9.21917 0.014708 0)
(9.18741 0.0174887 0)
(9.1468 0.0203607 0)
(9.10205 0.0230773 0)
(9.09326 0.0235792 0)
(9.04175 0.0263671 0)
(8.97999 0.0294182 0)
(8.91499 0.0324327 0)
(8.90243 0.0330001 0)
(8.83008 0.0362091 0)
(8.74556 0.0398329 0)
(8.65828 0.0435184 0)
(8.64154 0.0442216 0)
(8.54579 0.0482515 0)
(8.43516 0.0529195 0)
(8.32174 0.0577645 0)
(8.30002 0.0586968 0)
(8.176 0.0640782 0)
(8.03252 0.0704096 0)
(7.88487 0.0771061 0)
(7.85658 0.0784053 0)
(7.69503 0.0859563 0)
(7.50768 0.0949945 0)
(7.31358 0.104637 0)
(7.27633 0.106524 0)
(7.06361 0.117553 0)
(6.81407 0.130675 0)
(6.55439 0.144977 0)
(6.50407 0.147709 0)
(6.21475 0.163282 0)
(5.87794 0.182777 0)
(5.51228 0.200433 0)
(5.44297 0.204138 0)
(5.05266 0.226489 0)
(9.44428 -0.00337874 0)
(9.43463 0.00287016 0)
(9.43251 0.00387301 0)
(9.41922 0.00822884 0)
(9.39937 0.0119473 0)
(9.37556 0.0151067 0)
(9.37044 0.0156669 0)
(9.33798 0.0186476 0)
(9.29836 0.0217497 0)
(9.25548 0.0247008 0)
(9.24684 0.0252445 0)
(9.19483 0.0282472 0)
(9.13453 0.031559 0)
(9.07174 0.0348453 0)
(9.05938 0.0354606 0)
(8.98658 0.0389106 0)
(8.90386 0.042845 0)
(8.81908 0.0468617 0)
(8.80257 0.0476228 0)
(8.7064 0.0519395 0)
(8.59785 0.0569949 0)
(8.48732 0.062268 0)
(8.46589 0.0632759 0)
(8.34162 0.0690348 0)
(8.20077 0.0758974 0)
(8.05668 0.0831887 0)
(8.02876 0.0845926 0)
(7.86732 0.0926633 0)
(7.6832 0.102444 0)
(7.49355 0.112939 0)
(7.45681 0.114978 0)
(7.24478 0.126769 0)
(6.99937 0.140975 0)
(6.74553 0.156574 0)
(6.69595 0.159538 0)
(6.4085 0.17627 0)
(6.07704 0.197466 0)
(5.71968 0.217092 0)
(5.6514 0.221166 0)
(5.26382 0.245449 0)
(9.58622 -0.00307126 0)
(9.57775 0.00323666 0)
(9.57564 0.00425773 0)
(9.56128 0.00874867 0)
(9.54178 0.0126724 0)
(9.51936 0.0160431 0)
(9.51432 0.0166415 0)
(9.48111 0.0198233 0)
(9.44242 0.0231583 0)
(9.40138 0.0263488 0)
(9.39287 0.0269351 0)
(9.34031 0.0301543 0)
(9.28142 0.0337318 0)
(9.22081 0.0372976 0)
(9.20864 0.0379619 0)
(9.13538 0.0416553 0)
(9.05445 0.0459075 0)
(8.97218 0.0502658 0)
(8.95589 0.0510863 0)
(8.85931 0.0556926 0)
(8.75288 0.0611439 0)
(8.64525 0.066857 0)
(8.62409 0.067942 0)
(8.4996 0.0740786 0)
(8.3614 0.0814822 0)
(8.22093 0.0893849 0)
(8.19339 0.0908956 0)
(8.03211 0.0994869 0)
(7.85131 0.110024 0)
(7.66625 0.121393 0)
(7.63003 0.123586 0)
(7.41881 0.13614 0)
(7.17772 0.151445 0)
(6.92998 0.168375 0)
(6.88117 0.171572 0)
(6.59579 0.189465 0)
(6.27005 0.21238 0)
(5.92146 0.234034 0)
(5.8543 0.238485 0)
(5.46999 0.264706 0)
(9.59002 -0.00306338 0)
(9.57812 0.00323775 0)
(9.57601 0.00425873 0)
(9.56526 0.00876365 0)
(9.54545 0.0126919 0)
(9.51975 0.0160458 0)
(9.51474 0.0166443 0)
(9.48564 0.0198616 0)
(9.44622 0.0231969 0)
(9.40179 0.0263538 0)
(9.39334 0.0269405 0)
(9.34544 0.0302236 0)
(9.28542 0.0337933 0)
(9.22126 0.0373054 0)
(9.20915 0.0379707 0)
(9.14114 0.0417649 0)
(9.05876 0.0459984 0)
(8.97268 0.0502774 0)
(8.95647 0.0510996 0)
(8.86572 0.0558548 0)
(8.7576 0.061275 0)
(8.64581 0.0668738 0)
(8.62473 0.0679612 0)
(8.50665 0.0743105 0)
(8.36668 0.0816721 0)
(8.22155 0.0894093 0)
(8.1941 0.0909233 0)
(8.03982 0.0998154 0)
(7.85735 0.110305 0)
(7.66696 0.121429 0)
(7.63083 0.123626 0)
(7.42723 0.136605 0)
(7.18482 0.151875 0)
(6.93081 0.16843 0)
(6.88207 0.171631 0)
(6.60501 0.190128 0)
(6.27871 0.213067 0)
(5.92246 0.234121 0)
(5.85534 0.238573 0)
(5.48021 0.265678 0)
(9.72548 -0.00274972 0)
(9.71478 0.00361444 0)
(9.71269 0.0046539 0)
(9.70085 0.00929648 0)
(9.68138 0.0134324 0)
(9.65706 0.0169991 0)
(9.65211 0.0176362 0)
(9.6222 0.0210576 0)
(9.58367 0.0246293 0)
(9.54104 0.0280283 0)
(9.53272 0.0286582 0)
(9.48418 0.0321628 0)
(9.42554 0.0360034 0)
(9.36355 0.0397992 0)
(9.35162 0.0405143 0)
(9.28309 0.0445591 0)
(9.20247 0.0491175 0)
(9.11892 0.0537437 0)
(9.10294 0.0546264 0)
(9.01174 0.0596809 0)
(8.90576 0.0655063 0)
(8.79688 0.0715503 0)
(8.77609 0.0727158 0)
(8.65775 0.0794527 0)
(8.52044 0.0873651 0)
(8.37898 0.0957202 0)
(8.35192 0.0973424 0)
(8.19782 0.106769 0)
(8.01872 0.118028 0)
(7.83302 0.130035 0)
(7.79745 0.132388 0)
(7.59474 0.146147 0)
(7.35676 0.162534 0)
(7.10904 0.180427 0)
(7.06112 0.183866 0)
(6.78633 0.203546 0)
(6.46601 0.22823 0)
(6.11888 0.251332 0)
(6.05298 0.256164 0)
(5.68173 0.285252 0)
(9.85515 -0.0024287 0)
(9.84572 0.00400072 0)
(9.84365 0.00505932 0)
(9.83068 0.0098418 0)
(9.81152 0.0141873 0)
(9.7886 0.0179704 0)
(9.78372 0.0186466 0)
(9.7529 0.022273 0)
(9.71522 0.0260842 0)
(9.67439 0.0297308 0)
(9.66619 0.0304044 0)
(9.61691 0.0341311 0)
(9.55961 0.0382477 0)
(9.49979 0.0423351 0)
(9.48804 0.0431011 0)
(9.41888 0.0473968 0)
(9.34002 0.0522874 0)
(9.25902 0.0572718 0)
(9.24326 0.0582165 0)
(9.15154 0.0635698 0)
(9.0477 0.0698105 0)
(8.94179 0.0763135 0)
(8.92128 0.0775585 0)
(8.80258 0.0846791 0)
(8.66796 0.0931525 0)
(8.53023 0.102143 0)
(8.50356 0.103876 0)
(8.34955 0.113831 0)
(8.17388 0.125873 0)
(7.993 0.138787 0)
(7.95798 0.141298 0)
(7.75611 0.155827 0)
(7.52268 0.173346 0)
(7.28146 0.19261 0)
(7.23439 0.196288 0)
(6.96184 0.217139 0)
(6.64775 0.243577 0)
(6.31015 0.268783 0)
(6.24552 0.274001 0)
(5.87833 0.305048 0)
(9.97967 -0.00210052 0)
(9.97155 0.00439653 0)
(9.9695 0.00547503 0)
(9.95538 0.0104003 0)
(9.93652 0.0149573 0)
(9.91502 0.0189607 0)
(9.91019 0.0196767 0)
(9.8784 0.0235095 0)
(9.84154 0.0275633 0)
(9.80248 0.0314628 0)
(9.79439 0.032181 0)
(9.74431 0.036131 0)
(9.6883 0.0405281 0)
(9.63063 0.0449148 0)
(9.61904 0.0457328 0)
(9.5492 0.0502804 0)
(9.47207 0.0555096 0)
(9.39361 0.0608629 0)
(9.37806 0.0618708 0)
(9.28577 0.0675239 0)
(9.18407 0.074189 0)
(9.08114 0.0811645 0)
(9.06089 0.0824906 0)
(8.9418 0.0899929 0)
(8.80985 0.0990358 0)
(8.67585 0.108679 0)
(8.64956 0.110523 0)
(8.49562 0.121005 0)
(8.32338 0.133839 0)
(8.14736 0.147682 0)
(8.11289 0.150354 0)
(7.91185 0.165648 0)
(7.68304 0.184309 0)
(7.44844 0.20497 0)
(7.4022 0.208891 0)
(7.13195 0.230904 0)
(6.82426 0.259103 0)
(6.49643 0.286457 0)
(6.43311 0.292065 0)
(6.07019 0.325052 0)
(9.98372 -0.00209009 0)
(9.97195 0.0043979 0)
(9.96991 0.00547634 0)
(9.95961 0.0104197 0)
(9.94042 0.0149823 0)
(9.91544 0.0189642 0)
(9.91064 0.0196804 0)
(9.8832 0.0235581 0)
(9.84557 0.0276121 0)
(9.80293 0.0314692 0)
(9.79489 0.032188 0)
(9.74973 0.0362183 0)
(9.69255 0.0406058 0)
(9.63112 0.0449248 0)
(9.61959 0.0457441 0)
(9.55527 0.0504184 0)
(9.47664 0.0556247 0)
(9.39414 0.0608778 0)
(9.37868 0.0618879 0)
(9.29251 0.0677281 0)
(9.18909 0.0743551 0)
(9.08173 0.0811861 0)
(9.06158 0.0825153 0)
(8.94924 0.0902845 0)
(8.81546 0.0992757 0)
(8.67653 0.10871 0)
(8.65034 0.110559 0)
(8.50379 0.121416 0)
(8.32983 0.134193 0)
(8.14814 0.147728 0)
(8.11376 0.150406 0)
(7.92084 0.166228 0)
(7.69069 0.184846 0)
(7.44936 0.205041 0)
(7.4032 0.208967 0)
(7.14193 0.231727 0)
(6.83372 0.259955 0)
(6.49756 0.286568 0)
(6.43428 0.292178 0)
(6.08149 0.32625 0)
(10.1037 -0.00175763 0)
(10.0932 0.00480375 0)
(10.0912 0.00590255 0)
(10.0798 0.0109927 0)
(10.0609 0.0157707 0)
(10.0373 0.0199752 0)
(10.0325 0.0207315 0)
(10.0041 0.0248196 0)
(9.9672 0.0291204 0)
(9.92631 0.0332332 0)
(9.91837 0.0339972 0)
(9.87236 0.0382559 0)
(9.81643 0.0429292 0)
(9.75712 0.047551 0)
(9.74575 0.048423 0)
(9.68069 0.0533564 0)
(9.60373 0.0589082 0)
(9.52376 0.0645345 0)
(9.5085 0.0656089 0)
(9.42173 0.0717584 0)
(9.32042 0.0788193 0)
(9.21603 0.086128 0)
(9.19615 0.0875392 0)
(9.08339 0.095701 0)
(8.95223 0.105271 0)
(8.81701 0.115363 0)