/*--------------------------------*- C++ -*----------------------------------*\
| =========                 |                                                 |
| \\      /  F ield         | OpenFOAM: The Open Source CFD Toolbox           |
|  \\    /   O peration     | Version:  2506                                  |
|   \\  /    A nd           | Website:  www.openfoam.com                      |
|    \\/     M anipulation  |                                                 |
\*---------------------------------------------------------------------------*/
FoamFile
{
    version     2.0;
    format      ascii;
    arch        "LSB;label=32;scalar=64";
    class       volVectorField;
    location    "6000";
    object      U;
}
// * * * * * * * * * * * * * * * * * * * * * * * * * * * * * * * * * * * * * //

dimensions      [0 1 -1 0 0 0 0];

internalField   nonuniform List<vector> 
72100
(
(0.401561 1.85276e-05 0)
(0.399637 8.39378e-06 0)
(0.397017 6.81437e-06 0)
(0.394249 8.90674e-06 0)
(0.390903 9.65485e-06 0)
(0.38724 1.0597e-05 0)
(0.383253 1.13883e-05 0)
(0.378983 1.2167e-05 0)
(0.374441 1.29383e-05 0)
(0.369632 1.37234e-05 0)
(0.364555 1.45318e-05 0)
(0.359207 1.53739e-05 0)
(0.35358 1.62601e-05 0)
(0.347663 1.71938e-05 0)
(0.341444 1.81832e-05 0)
(0.334908 1.92349e-05 0)
(0.32804 2.03551e-05 0)
(0.32082 2.15516e-05 0)
(0.313229 2.283e-05 0)
(0.305236 2.422e-05 0)
(0.296809 2.57081e-05 0)
(0.287932 2.72569e-05 0)
(0.278584 2.89271e-05 0)
(0.268738 3.07014e-05 0)
(0.258346 3.26539e-05 0)
(0.247372 3.47121e-05 0)
(0.235767 3.69856e-05 0)
(0.223515 3.92309e-05 0)
(0.210535 4.19071e-05 0)
(0.196861 4.41788e-05 0)
(0.182335 4.7445e-05 0)
(0.167155 4.91478e-05 0)
(0.150919 5.36475e-05 0)
(0.134327 5.30252e-05 0)
(0.1162 6.08741e-05 0)
(0.0987579 5.29311e-05 0)
(0.078363 7.09998e-05 0)
(0.061839 4.15796e-05 0)
(0.037906 9.12412e-05 0)
(0.0269198 -1.45971e-06 0)
(1.21483 9.62896e-05 0)
(1.20993 7.99356e-05 0)
(1.20309 8.6211e-05 0)
(1.19545 0.00010441 0)
(1.18625 0.00011894 0)
(1.17605 0.000131631 0)
(1.16491 0.000143301 0)
(1.15291 0.000154448 0)
(1.14011 0.000165461 0)
(1.12651 0.000176586 0)
(1.11212 0.000187985 0)
(1.09693 0.000199801 0)
(1.08092 0.000212163 0)
(1.06405 0.000225152 0)
(1.0463 0.000238868 0)
(1.02761 0.000253408 0)
(1.00795 0.000268871 0)
(0.987264 0.000285344 0)
(0.965488 0.000303061 0)
(0.942532 0.000322353 0)
(0.9183 0.000342973 0)
(0.892742 0.000364631 0)
(0.865799 0.000387724 0)
(0.837391 0.000412648 0)
(0.807372 0.000439878 0)
(0.775631 0.0004692 0)
(0.742023 0.000500791 0)
(0.706481 0.00053429 0)
(0.668779 0.000570718 0)
(0.628966 0.000608219 0)
(0.586626 0.000649559 0)
(0.542207 0.000689144 0)
(0.494689 0.000735337 0)
(0.445765 0.000771218 0)
(0.392493 0.000822831 0)
(0.340364 0.00084022 0)
(0.280302 0.000902658 0)
(0.229416 0.00086476 0)
(0.159342 0.000966244 0)
(0.121824 0.000738462 0)
(2.04672 0.000228979 0)
(2.03986 0.000205433 0)
(2.02973 0.000234801 0)
(2.0179 0.000285638 0)
(2.00364 0.000328298 0)
(1.98769 0.000365195 0)
(1.97017 0.000399182 0)
(1.95124 0.000431605 0)
(1.93097 0.000463572 0)
(1.90938 0.00049581 0)
(1.88649 0.000528793 0)
(1.86228 0.000562932 0)
(1.8367 0.000598596 0)
(1.80972 0.000636033 0)
(1.78129 0.000675528 0)
(1.75133 0.000717363 0)
(1.71977 0.000761831 0)
(1.68652 0.000809191 0)
(1.65148 0.000860201 0)
(1.61451 0.00091579 0)
(1.57544 0.00097521 0)
(1.53419 0.00103769 0)
(1.49067 0.00110424 0)
(1.44472 0.00117627 0)
(1.39613 0.00125499 0)
(1.34468 0.00133999 0)
(1.29014 0.00143152 0)
(1.23238 0.00152942 0)
(1.17104 0.0016352 0)
(1.10613 0.00174628 0)
(1.03703 0.00186622 0)
(0.964289 0.00198716 0)
(0.886454 0.00211922 0)
(0.805816 0.00223922 0)
(0.718228 0.00237811 0)
(0.631331 0.0024706 0)
(0.532367 0.00260814 0)
(0.445491 0.00261256 0)
(0.330533 0.00275393 0)
(0.261574 0.00242989 0)
(2.88496 0.00037846 0)
(2.87729 0.00037422 0)
(2.86477 0.000448636 0)
(2.84954 0.000549901 0)
(2.83114 0.000635912 0)
(2.81039 0.000710513 0)
(2.78748 0.00077924 0)
(2.76261 0.000844772 0)
(2.73589 0.000909289 0)
(2.70737 0.00097427 0)
(2.67703 0.00104067 0)
(2.64488 0.00110933 0)
(2.61086 0.00118098 0)
(2.57492 0.00125613 0)
(2.53698 0.00133535 0)
(2.49695 0.00141922 0)
(2.45472 0.00150832 0)
(2.41019 0.00160321 0)
(2.36321 0.00170553 0)
(2.31357 0.0018171 0)
(2.26105 0.00193635 0)
(2.20553 0.00206182 0)
(2.14688 0.00219543 0)
(2.0849 0.00234027 0)
(2.01925 0.0024987 0)
(1.94965 0.00267 0)
(1.87579 0.00285455 0)
(1.79742 0.00305286 0)
(1.71407 0.00326677 0)
(1.62567 0.00349358 0)
(1.53142 0.00373668 0)
(1.43188 0.00398771 0)
(1.32527 0.00425485 0)
(1.21413 0.00451434 0)
(1.09362 0.00478977 0)
(0.972479 0.00501964 0)
(0.83587 0.00526721 0)
(0.711942 0.00538737 0)
(0.553719 0.00554918 0)
(0.448835 0.00523055 0)
(3.69355 0.000501335 0)
(3.68594 0.00056859 0)
(3.67187 0.000714088 0)
(3.6542 0.000882462 0)
(3.6328 0.00102575 0)
(3.60846 0.00115102 0)
(3.58145 0.00126651 0)
(3.55201 0.00137659 0)
(3.52026 0.00148485 0)
(3.48627 0.00159378 0)
(3.45004 0.00170499 0)
(3.41155 0.00181988 0)
(3.37076 0.00193967 0)
(3.32758 0.00206525 0)
(3.28194 0.00219759 0)
(3.23371 0.00233763 0)
(3.18278 0.00248641 0)
(3.12899 0.00264485 0)
(3.07219 0.00281592 0)
(3.01207 0.00300259 0)
(2.94838 0.00320218 0)
(2.88098 0.00341233 0)
(2.80967 0.00363618 0)
(2.73422 0.00387929 0)
(2.65417 0.00414552 0)
(2.56917 0.00443372 0)
(2.47882 0.00474464 0)
(2.38276 0.00507999 0)
(2.2804 0.00544186 0)
(2.17155 0.00582805 0)
(2.05527 0.0062413 0)
(1.93199 0.00667402 0)
(1.79973 0.00713026 0)
(1.66099 0.00758932 0)
(1.51057 0.00805971 0)
(1.35744 0.00849557 0)
(1.18599 0.00890562 0)
(1.02571 0.00921936 0)
(0.827101 0.00941577 0)
(0.683464 0.00921496 0)
(4.42454 0.000585172 0)
(4.41712 0.000774628 0)
(4.4022 0.0010144 0)
(4.3831 0.00126285 0)
(4.35984 0.00147467 0)
(4.33321 0.00166164 0)
(4.30349 0.0018343 0)
(4.27095 0.00199879 0)
(4.23575 0.00216044 0)
(4.19796 0.00232294 0)
(4.15758 0.00248871 0)
(4.11461 0.00265983 0)
(4.06899 0.00283813 0)
(4.02063 0.00302498 0)
(3.96944 0.00322182 0)
(3.9153 0.00343013 0)
(3.85805 0.00365142 0)
(3.79752 0.00388719 0)
(3.73353 0.00414212 0)
(3.66574 0.00442062 0)
(3.59383 0.00471844 0)
(3.51766 0.00503235 0)
(3.43698 0.00536708 0)
(3.35151 0.00573137 0)
(3.2607 0.00613091 0)
(3.16413 0.00656402 0)
(3.06133 0.00703232 0)
(2.95183 0.00753927 0)
(2.83492 0.00808735 0)
(2.7103 0.00867552 0)
(2.57687 0.00930597 0)
(2.43489 0.00997292 0)
(2.28225 0.0106755 0)
(2.12115 0.0113985 0)
(1.94631 0.0121315 0)
(1.76625 0.0128505 0)
(1.56547 0.0134959 0)
(1.3728 0.014092 0)
(1.13928 0.0143787 0)
(0.957678 0.014422 0)
(5.05297 0.000649889 0)
(5.04557 0.00098722 0)
(5.03036 0.00133531 0)
(5.01059 0.0016727 0)
(4.98638 0.00196166 0)
(4.95846 0.00221906 0)
(4.92712 0.00245721 0)
(4.89267 0.00268402 0)
(4.85528 0.00290676 0)
(4.81502 0.00313048 0)
(4.77191 0.00335848 0)
(4.72595 0.00359363 0)
(4.67708 0.00383845 0)
(4.62522 0.0040949 0)
(4.57027 0.00436498 0)
(4.51208 0.00465075 0)
(4.4505 0.00495435 0)
(4.38535 0.00527791 0)
(4.31642 0.00562835 0)
(4.24333 0.00601157 0)
(4.16577 0.00642122 0)
(4.08356 0.00685333 0)
(3.99643 0.00731473 0)
(3.90404 0.007818 0)
(3.80579 0.0083708 0)
(3.70122 0.00897076 0)
(3.58979 0.00962102 0)
(3.47095 0.0103274 0)
(3.34391 0.011093 0)
(3.20823 0.0119186 0)
(3.06275 0.0128063 0)
(2.9075 0.0137533 0)
(2.74029 0.0147537 0)
(2.56297 0.0158004 0)
(2.37028 0.0168619 0)
(2.17001 0.0179419 0)
(1.94716 0.0189036 0)
(1.72879 0.01988 0)
(1.46815 0.0203421 0)
(1.25357 0.0207742 0)
(5.58383 0.000718098 0)
(5.57645 0.00120407 0)
(5.56136 0.00166702 0)
(5.54143 0.00210055 0)
(5.51682 0.00247393 0)
(5.48823 0.0028084 0)
(5.45601 0.00311844 0)
(5.42045 0.00341416 0)
(5.3817 0.00370452 0)
(5.33986 0.00399589 0)
(5.29497 0.00429254 0)
(5.24702 0.00459822 0)
(5.19596 0.00491623 0)
(5.1417 0.00524916 0)
(5.08415 0.00559967 0)
(5.02316 0.00597048 0)
(4.95857 0.00636442 0)
(4.8902 0.00678435 0)
(4.81782 0.00723984 0)
(4.74102 0.00773773 0)
(4.65951 0.0082692 0)
(4.5731 0.00883022 0)
(4.48148 0.00943008 0)
(4.3843 0.0100859 0)
(4.28089 0.010807 0)
(4.17078 0.0115899 0)
(4.05341 0.0124403 0)
(3.92813 0.0133668 0)
(3.79412 0.014373 0)
(3.65086 0.0154626 0)
(3.49709 0.0166378 0)
(3.3327 0.0178999 0)
(3.15546 0.019238 0)
(2.96687 0.0206558 0)
(2.76177 0.0220994 0)
(2.54715 0.0236058 0)
(2.30869 0.0249547 0)
(2.07136 0.0264018 0)
(1.79113 0.0271268 0)
(1.55035 0.0280861 0)
(6.03604 0.000794519 0)
(6.02887 0.00142249 0)
(6.01421 0.00200435 0)
(5.99448 0.00254029 0)
(5.96986 0.00300505 0)
(5.94103 0.00342356 0)
(5.90838 0.0038122 0)
(5.87217 0.00418338 0)
(5.83255 0.00454783 0)
(5.78964 0.00491316 0)
(5.74347 0.00528464 0)
(5.69405 0.00566699 0)
(5.64133 0.00606432 0)
(5.58525 0.00647995 0)
(5.52568 0.00691722 0)
(5.46251 0.00737959 0)
(5.39555 0.00787063 0)
(5.32463 0.00839406 0)
(5.2495 0.00896048 0)
(5.1699 0.00957819 0)
(5.08553 0.0102387 0)
(4.99609 0.010938 0)
(4.90125 0.011687 0)
(4.80061 0.0125074 0)
(4.69347 0.0134091 0)
(4.57941 0.0143877 0)
(4.4578 0.0154529 0)
(4.32794 0.0166161 0)
(4.189 0.0178812 0)
(4.04038 0.0192557 0)
(3.88078 0.0207419 0)
(3.70997 0.0223465 0)
(3.5257 0.0240537 0)
(3.32917 0.0258798 0)
(3.11536 0.0277476 0)
(2.89052 0.0297326 0)
(2.64102 0.031526 0)
(2.38979 0.0335183 0)
(2.09556 0.0345821 0)
(1.83452 0.0361787 0)
(6.42669 0.000878201 0)
(6.41987 0.0016392 0)
(6.40578 0.00234275 0)
(6.38651 0.00298704 0)
(6.36221 0.00354976 0)
(6.33351 0.00405852 0)
(6.30078 0.00453193 0)
(6.26428 0.00498499 0)
(6.22418 0.00542989 0)
(6.18058 0.0058754 0)
(6.13353 0.00632781 0)
(6.08305 0.00679285 0)
(6.02911 0.00727552 0)
(5.97162 0.00777989 0)
(5.9105 0.00831005 0)
(5.8456 0.00887022 0)
(5.77676 0.0094648 0)
(5.70379 0.0100985 0)
(5.62644 0.0107827 0)
(5.54456 0.0115269 0)
(5.45786 0.0123231 0)
(5.36595 0.0131683 0)
(5.26848 0.0140748 0)
(5.16502 0.0150668 0)
(5.05507 0.0161565 0)
(4.93808 0.0173419 0)
(4.81336 0.0186356 0)
(4.68016 0.0200496 0)
(4.53762 0.0215893 0)
(4.38511 0.0232663 0)
(4.22131 0.0250836 0)
(4.04586 0.0270539 0)
(3.85653 0.0291563 0)
(3.65428 0.0314223 0)
(3.4342 0.0337502 0)
(3.20191 0.036258 0)
(2.94442 0.038545 0)
(2.68281 0.0411456 0)
(2.37836 0.0426163 0)
(2.10146 0.0449352 0)
(6.7676 0.000960526 0)
(6.76113 0.00185083 0)
(6.74766 0.00267789 0)
(6.72901 0.00343458 0)
(6.70525 0.00410057 0)
(6.67696 0.00470551 0)
(6.64448 0.00526991 0)
(6.60804 0.00581113 0)
(6.56783 0.00634281 0)
(6.52394 0.00687472 0)
(6.47644 0.00741422 0)
(6.42535 0.00796813 0)
(6.37064 0.00854237 0)
(6.31224 0.00914175 0)
(6.25005 0.0097712 0)
(6.18396 0.0104358 0)
(6.11378 0.0111408 0)
(6.03934 0.0118919 0)
(5.96039 0.0127005 0)
(5.87675 0.0135761 0)
(5.78814 0.0145137 0)
(5.6942 0.0155118 0)
(5.59456 0.0165839 0)
(5.48877 0.0177556 0)
(5.37648 0.0190416 0)
(5.25709 0.0204418 0)
(5.12987 0.0219714 0)
(4.99417 0.0236473 0)
(4.84899 0.0254757 0)
(4.69362 0.0274708 0)
(4.52673 0.0296368 0)
(4.3479 0.0319927 0)
(4.15489 0.0345135 0)
(3.94845 0.0372469 0)
(3.7238 0.0400666 0)
(3.486 0.043136 0)
(3.22264 0.0459614 0)
(2.95315 0.0492261 0)
(2.64108 0.0511685 0)
(2.35158 0.0542792 0)
(7.06805 0.00104038 0)
(7.0619 0.00205721 0)
(7.04905 0.00300799 0)
(7.03109 0.00387954 0)
(7.00802 0.00465293 0)
(6.98034 0.00535903 0)
(6.94834 0.00602 0)
(6.91226 0.00665521 0)
(6.87223 0.0072795 0)
(6.82839 0.00790355 0)
(6.7808 0.00853583 0)
(6.72947 0.00918436 0)
(6.67438 0.0098559 0)
(6.61547 0.010556 0)
(6.55266 0.0112905 0)
(6.48581 0.0120655 0)
(6.41478 0.0128869 0)
(6.33935 0.0137618 0)
(6.25931 0.0147015 0)
(6.17443 0.015716 0)
(6.08444 0.0168027 0)
(5.98903 0.0179617 0)
(5.88779 0.0192082 0)
(5.78028 0.0205674 0)
(5.66611 0.0220555 0)
(5.54473 0.0236784 0)
(5.41543 0.0254526 0)
(5.27768 0.0273983 0)
(5.13045 0.0295246 0)
(4.97298 0.0318515 0)
(4.80385 0.0343815 0)
(4.62255 0.0371409 0)
(4.42687 0.0401006 0)
(4.21739 0.0433256 0)
(3.98942 0.0466657 0)
(3.74754 0.0503312 0)
(3.47986 0.0537362 0)
(3.20435 0.0577147 0)
(2.88656 0.0601916 0)
(2.58697 0.0641543 0)
(7.33544 0.00111848 0)
(7.32957 0.00225889 0)
(7.3173 0.00333238 0)
(7.30006 0.00431993 0)
(7.27775 0.00520368 0)
(7.25081 0.00601494 0)
(7.21948 0.00677737 0)
(7.18394 0.00751194 0)
(7.14434 0.00823422 0)
(7.1008 0.00895568 0)
(7.0534 0.00968614 0)
(7.00214 0.0104348 0)
(6.947 0.0112091 0)
(6.88792 0.0120153 0)
(6.82483 0.0128604 0)
(6.75761 0.0137512 0)
(6.68608 0.0146948 0)
(6.61008 0.0156992 0)
(6.52936 0.0167765 0)
(6.44369 0.0179372 0)
(6.3528 0.01918 0)
(6.25639 0.0205069 0)
(6.15406 0.0219352 0)
(6.04536 0.0234905 0)
(5.92986 0.0251906 0)
(5.80702 0.0270456 0)
(5.67618 0.0290725 0)
(5.53675 0.0312951 0)
(5.38785 0.033728 0)
(5.22873 0.0363955 0)
(5.05798 0.0393029 0)
(4.87493 0.0424821 0)
(4.67736 0.0458991 0)
(4.4657 0.0496376 0)
(4.23536 0.053524 0)
(3.99052 0.0578165 0)
(3.7197 0.0618391 0)
(3.43964 0.0665763 0)
(3.11758 0.0696478 0)
(2.80991 0.0745164 0)
(7.57566 0.00119581 0)
(7.57001 0.00245657 0)
(7.55828 0.00365092 0)
(7.54174 0.00475454 0)
(7.52022 0.00575058 0)
(7.49408 0.00667013 0)
(7.46352 0.00753828 0)
(7.42867 0.00837708 0)
(7.38967 0.00920215 0)
(7.34665 0.0100259 0)
(7.29967 0.0108597 0)
(7.24871 0.0117138 0)
(7.19377 0.0125959 0)
(7.13481 0.0135135 0)
(7.07173 0.0144745 0)
(7.00442 0.0154866 0)
(6.93273 0.0165578 0)
(6.85648 0.0176974 0)
(6.77543 0.0189183 0)
(6.68934 0.0202316 0)
(6.59793 0.0216373 0)
(6.50091 0.0231389 0)
(6.3979 0.024756 0)
(6.28845 0.0265154 0)
(6.17209 0.0284365 0)
(6.0483 0.0305326 0)
(5.91642 0.0328222 0)
(5.77583 0.0353319 0)
(5.62569 0.0380796 0)
(5.46527 0.0410963 0)
(5.29328 0.0443907 0)
(5.10899 0.0480026 0)
(4.91014 0.0518946 0)
(4.697 0.0561674 0)
(4.46504 0.0606238 0)
(4.21813 0.0655718 0)
(3.94511 0.0702473 0)
(3.66168 0.0757845 0)
(3.33648 0.0795082 0)
(3.02243 0.0853315 0)
(7.7935 0.00127305 0)
(7.78805 0.00265093 0)
(7.77679 0.00396408 0)
(7.76089 0.00518321 0)
(7.74013 0.00629274 0)
(7.71479 0.00732302 0)
(7.68502 0.0083004 0)
(7.65093 0.00924738 0)
(7.61265 0.0101793 0)
(7.57028 0.0111097 0)
(7.52389 0.0120518 0)
(7.47342 0.0130163 0)
(7.41889 0.0140112 0)
(7.36026 0.0150452 0)
(7.29743 0.0161273 0)
(7.2303 0.0172658 0)
(7.15871 0.0184701 0)
(7.08248 0.0197503 0)
(7.00138 0.0211204 0)
(6.91517 0.0225926 0)
(6.82357 0.0241676 0)
(6.72628 0.0258504 0)
(6.62293 0.0276629 0)
(6.51308 0.0296339 0)
(6.39626 0.0317842 0)
(6.27193 0.0341299 0)
(6.13945 0.0366919 0)
(5.99817 0.0394992 0)
(5.84725 0.0425728 0)
(5.68597 0.0459487 0)
(5.51307 0.0496389 0)
(5.3279 0.0536951 0)
(5.12818 0.0580752 0)
(4.91407 0.0628996 0)
(4.68111 0.0679475 0)
(4.43284 0.0735792 0)
(4.15838 0.0789399 0)
(3.87257 0.085319 0)
(3.54517 0.0897477 0)
(3.22616 0.0965744 0)
(7.99318 0.0013497 0)
(7.98791 0.00284314 0)
(7.97703 0.00427402 0)
(7.96165 0.00560844 0)
(7.94151 0.00683238 0)
(7.91684 0.00797523 0)
(7.88777 0.00906372 0)
(7.85442 0.0101211 0)
(7.81689 0.0111632 0)
(7.77525 0.0122042 0)
(7.72953 0.0132591 0)
(7.67967 0.0143384 0)
(7.62572 0.0154504 0)
(7.5676 0.0166057 0)
(7.50521 0.0178138 0)
(7.43846 0.0190839 0)
(7.36718 0.0204263 0)
(7.2912 0.0218525 0)
(7.2103 0.0233775 0)
(7.12421 0.0250143 0)
(7.03268 0.0267648 0)
(6.93539 0.0286352 0)
(6.832 0.0306499 0)
(6.72206 0.0328394 0)
(6.60509 0.0352265 0)
(6.48057 0.0378299 0)
(6.34784 0.040673 0)
(6.20627 0.0437878 0)
(6.05501 0.0471981 0)
(5.89331 0.0509451 0)
(5.71993 0.0550429 0)
(5.53423 0.0595539 0)
(5.334 0.064435 0)
(5.11931 0.0698261 0)
(4.88582 0.075485 0)
(4.63672 0.0818225 0)
(4.36147 0.0878981 0)
(4.07398 0.0951542 0)
(3.7452 0.100333 0)
(3.42244 0.108223 0)
(8.17789 0.0014258 0)
(8.1728 0.0030338 0)
(8.16224 0.00458189 0)
(8.14729 0.00603152 0)
(8.12766 0.00737076 0)
(8.10357 0.00862787 0)
(8.07509 0.00982974 0)
(8.0424 0.0109999 0)
(8.00554 0.0121548 0)
(7.96456 0.0133095 0)
(7.91948 0.0144797 0)
(7.87031 0.015677 0)
(7.81701 0.0169103 0)
(7.75952 0.0181914 0)
(7.69771 0.01953 0)
(7.6315 0.0209362 0)
(7.56071 0.022422 0)
(7.48517 0.0239994 0)
(7.40465 0.0256846 0)
(7.31891 0.0274919 0)
(7.22766 0.0294238 0)
(7.13061 0.0314882 0)
(7.0274 0.0337113 0)
(6.91762 0.0361261 0)
(6.80077 0.0387572 0)
(6.67634 0.041626 0)
(6.54368 0.0447585 0)
(6.40214 0.04819 0)
(6.25088 0.051947 0)
(6.08915 0.0560762 0)
(5.91571 0.0605939 0)
(5.72989 0.0655729 0)
(5.52956 0.0709693 0)
(5.31471 0.0769419 0)
(5.08112 0.0832301 0)
(4.83163 0.0902939 0)
(4.5562 0.0971146 0)
(4.26758 0.105276 0)
(3.93829 0.111259 0)
(3.61238 0.120246 0)
(8.34983 0.00150063 0)
(8.3449 0.00322338 0)
(8.33464 0.00488896 0)
(8.3201 0.00645432 0)
(8.30096 0.00791003 0)
(8.27742 0.00928317 0)
(8.24953 0.0106001 0)
(8.21744 0.0118847 0)
(8.18118 0.0131548 0)
(8.14081 0.0144261 0)
(8.09633 0.0157147 0)
(8.04779 0.017033 0)
(7.99512 0.0183904 0)
(7.93825 0.0198001 0)
(7.8771 0.0212727 0)
(7.81153 0.0228195 0)
(7.74137 0.0244532 0)
(7.66642 0.0261868 0)
(7.58645 0.0280376 0)
(7.50122 0.0300209 0)
(7.41044 0.0321403 0)
(7.31381 0.0344046 0)
(7.21099 0.0368425 0)
(7.10157 0.0394891 0)
(6.98507 0.0423712 0)
(6.86096 0.0455127 0)
(6.72862 0.0489424 0)
(6.58739 0.052699 0)
(6.43643 0.0568123 0)
(6.27499 0.0613339 0)
(6.10184 0.0662831 0)
(5.91628 0.0717424 0)
(5.71625 0.0776678 0)
(5.50165 0.0842372 0)
(5.26841 0.0911739 0)
(5.01905 0.0989861 0)
(4.74398 0.106581 0)
(4.45488 0.11568 0)
(4.12586 0.122518 0)
(3.79741 0.132636 0)
(8.51077 0.0015746 0)
(8.50599 0.00341223 0)
(8.49601 0.0051955 0)
(8.48183 0.00687697 0)
(8.46316 0.00845006 0)
(8.44015 0.00994062 0)
(8.41284 0.0113747 0)
(8.38134 0.0127763 0)
(8.34571 0.0141645 0)
(8.30595 0.0155554 0)
(8.26209 0.0169649 0)
(8.21415 0.0184065 0)
(8.16207 0.0198912 0)
(8.1058 0.0214326 0)
(8.04527 0.0230421 0)
(7.98035 0.024732 0)
(7.91087 0.0265171 0)
(7.83662 0.0284114 0)
(7.75734 0.030433 0)
(7.67275 0.0325979 0)
(7.58258 0.0349103 0)
(7.48654 0.0373806 0)
(7.38427 0.0400394 0)
(7.27539 0.0429241 0)
(7.15942 0.0460637 0)
(7.03584 0.049485 0)
(6.90403 0.0532194 0)
(6.76334 0.0573094 0)
(6.61293 0.0617876 0)
(6.45205 0.0667115 0)
(6.27948 0.0721029 0)
(6.09452 0.0780542 0)
(5.89512 0.0845214 0)
(5.68115 0.0917017 0)
(5.44866 0.0993042 0)
(5.1999 0.107883 0)
(4.92569 0.11628 0)
(4.63677 0.126344 0)
(4.30866 0.134087 0)
(3.97868 0.145391 0)
(8.66216 0.00164818 0)
(8.65751 0.00360071 0)
(8.64778 0.00550187 0)
(8.63395 0.00729986 0)
(8.61571 0.00899117 0)
(8.5932 0.0106004 0)
(8.56646 0.0121535 0)
(8.53555 0.0136744 0)
(8.50052 0.0151831 0)
(8.4614 0.0166962 0)
(8.41817 0.0182298 0)
(8.37086 0.0197982 0)
(8.31941 0.0214136 0)
(8.26376 0.0230894 0)
(8.20384 0.0248385 0)
(8.13952 0.0266746 0)
(8.0707 0.0286133 0)
(7.99718 0.0306711 0)
(7.91866 0.0328678 0)
(7.83483 0.0352196 0)
(7.74539 0.0377308 0)
(7.65005 0.0404129 0)
(7.54848 0.0432984 0)
(7.44029 0.0464275 0)
(7.325 0.049831 0)
(7.20212 0.0535389 0)
(7.07101 0.0575852 0)
(6.93105 0.0620162 0)
(6.7814 0.0668678 0)
(6.62132 0.072203 0)
(6.44959 0.0780469 0)
(6.26548 0.0845011 0)
(6.06703 0.0915224 0)
(5.85403 0.0993268 0)
(5.62262 0.107611 0)
(5.37489 0.116973 0)
(5.10197 0.126197 0)
(4.81383 0.13725 0)
(4.48717 0.145946 0)
(4.15667 0.158477 0)
(8.8052 0.00172172 0)
(8.80066 0.00378924 0)
(8.79115 0.00580851 0)
(8.77765 0.00772346 0)
(8.75981 0.00953379 0)
(8.73778 0.0112629 0)
(8.71157 0.0129366 0)
(8.68124 0.0145789 0)
(8.64681 0.0162104 0)
(8.60832 0.0178482 0)
(8.56574 0.0195087 0)
(8.51907 0.021207 0)
(8.46827 0.0229562 0)
(8.41327 0.0247701 0)
(8.35399 0.0266625 0)
(8.29032 0.0286478 0)
(8.22214 0.0307427 0)
(8.1493 0.0329659 0)
(8.07157 0.0353406 0)
(7.98856 0.0378838 0)
(7.89994 0.0405992 0)
(7.80541 0.0434986 0)
(7.70464 0.0466167 0)
(7.59726 0.0499959 0)
(7.48279 0.0536697 0)
(7.36074 0.0576707 0)
(7.2305 0.0620359 0)
(7.09143 0.0668152 0)
(6.94271 0.0720482 0)
(6.78361 0.0778034 0)
(6.61293 0.0841092 0)
(6.42993 0.0910768 0)
(6.23267 0.0986637 0)
(6.02091 0.107105 0)
(5.79091 0.116085 0)
(5.54456 0.126247 0)
(5.2733 0.136321 0)
(4.98646 0.148383 0)
(4.66173 0.158074 0)
(4.3316 0.171872 0)
(8.94088 0.0017956 0)
(8.93643 0.00397821 0)
(8.92713 0.00611591 0)
(8.91392 0.00814829 0)
(8.89646 0.0100784 0)
(8.87488 0.0119285 0)
(8.84918 0.0137243 0)
(8.8194 0.01549 0)
(8.78557 0.0172463 0)
(8.74769 0.0190112 0)
(8.70575 0.0208014 0)
(8.65974 0.0226325 0)
(8.6096 0.0245184 0)
(8.55527 0.0264737 0)
(8.49667 0.0285129 0)
(8.43369 0.0306511 0)
(8.36619 0.0329058 0)
(8.29402 0.0352969 0)
(8.21703 0.037851 0)
(8.13489 0.0405889 0)
(8.04714 0.0435135 0)
(7.95349 0.0466355 0)
(7.85362 0.0499917 0)
(7.74714 0.0536269 0)
(7.6336 0.0575769 0)
(7.5125 0.0618773 0)
(7.38324 0.066568 0)
(7.24521 0.0717028 0)
(7.09758 0.0773248 0)
(6.93962 0.0835082 0)
(6.77016 0.0902849 0)
(6.58846 0.0977756 0)
(6.39261 0.105939 0)
(6.18234 0.115028 0)
(5.954 0.12472 0)
(5.70935 0.135696 0)
(5.44008 0.146639 0)
(5.15498 0.159732 0)
(4.8326 0.170455 0)
(4.50361 0.185557 0)
(9.07002 0.00187022 0)
(9.06565 0.00416801 0)
(9.05654 0.00642449 0)
(9.0436 0.00857487 0)
(9.0265 0.0106257 0)
(9.00534 0.0125978 0)
(8.98012 0.0145172 0)
(8.95088 0.0164078 0)
(8.91762 0.0182911 0)
(8.88035 0.0201853 0)
(8.83904 0.0221076 0)
(8.79368 0.0240742 0)
(8.74422 0.0260999 0)
(8.69058 0.0281997 0)
(8.63267 0.030389 0)
(8.5704 0.0326838 0)
(8.50361 0.0351021 0)
(8.43216 0.0376646 0)
(8.3559 0.0403997 0)
(8.27461 0.0433346 0)
(8.18776 0.0464725 0)
(8.09505 0.0498219 0)
(7.99613 0.0534213 0)
(7.89064 0.057318 0)
(7.77811 0.06155 0)
(7.65806 0.0661559 0)
(7.5299 0.0711787 0)
(7.39301 0.0766758 0)
(7.24659 0.0826941 0)
(7.08992 0.0893136 0)
(6.92183 0.0965697 0)
(6.7416 0.104593 0)
(6.54735 0.113343 0)
(6.33878 0.123092 0)
(6.11233 0.133507 0)
(5.86963 0.14531 0)
(5.60264 0.157143 0)
(5.31966 0.171286 0)
(5.00002 0.183073 0)
(4.67278 0.199513 0)
(9.19335 0.00194578 0)
(9.18905 0.00435899 0)
(9.18011 0.00673472 0)
(9.16742 0.00900371 0)
(9.15064 0.011176 0)
(9.12987 0.0132712 0)
(9.10512 0.0153155 0)
(9.07638 0.0173329 0)
(9.04368 0.019345 0)
(9.007 0.0213707 0)
(8.96632 0.0234275 0)
(8.92161 0.0255323 0)
(8.87281 0.0277004 0)
(8.81986 0.0299477 0)
(8.76267 0.0322903 0)
(8.70112 0.034745 0)
(8.63507 0.0373307 0)
(8.56437 0.0400686 0)
(8.48886 0.0429877 0)
(8.40838 0.0461212 0)
(8.32246 0.0494754 0)
(8.23072 0.0530566 0)
(8.13281 0.0569042 0)
(8.02836 0.0610675 0)
(7.91691 0.0655871 0)
(7.79799 0.0705044 0)
(7.67101 0.0758653 0)
(7.53536 0.0817314 0)
(7.39026 0.088153 0)
(7.23499 0.095216 0)
(7.06841 0.10296 0)
(6.88979 0.111524 0)
(6.69729 0.120871 0)
(6.4906 0.131289 0)
(6.26623 0.14244 0)
(6.02573 0.155084 0)
(5.76125 0.167823 0)
(5.48072 0.183032 0)
(5.16414 0.195914 0)
(4.83921 0.213723 0)
(9.31145 0.00202219 0)
(9.30721 0.00455145 0)
(9.29843 0.00704702 0)
(9.28597 0.00943533 0)
(9.26949 0.01173 0)
(9.2491 0.0139494 0)
(9.22477 0.0161199 0)
(9.19653 0.0182656 0)
(9.16435 0.0204083 0)
(9.12825 0.0225675 0)
(9.08818 0.0247612 0)
(9.04411 0.0270066 0)
(8.99598 0.0293199 0)
(8.94372 0.0317176 0)
(8.88724 0.0342166 0)
(8.82642 0.0368345 0)
(8.76113 0.039591 0)
(8.6912 0.0425083 0)
(8.61647 0.0456151 0)
(8.5368 0.0489489 0)
(8.45181 0.0525218 0)
(8.36106 0.0563388 0)
(8.26419 0.0604392 0)
(8.16082 0.0648741 0)
(8.0505 0.0696865 0)
(7.93277 0.0749208 0)
(7.80704 0.0806258 0)
(7.67272 0.0868672 0)
(7.52903 0.0936988 0)
(7.37526 0.101212 0)
(7.21029 0.109451 0)
(7.0334 0.118565 0)
(6.84278 0.128517 0)
(6.63812 0.139615 0)
(6.41601 0.151513 0)
(6.17789 0.165009 0)
(5.91616 0.17867 0)
(5.63836 0.194961 0)
(5.32514 0.208963 0)
(5.00297 0.228169 0)
(9.42486 0.00209955 0)
(9.42067 0.00474568 0)
(9.41204 0.00736179 0)
(9.39978 0.00987021 0)
(9.38358 0.0122882 0)
(9.36354 0.0146328 0)
(9.33962 0.016931 0)
(9.31184 0.0192064 0)
(9.28017 0.0214816 0)
(9.24462 0.0237762 0)
(9.20514 0.0261089 0)
(9.1617 0.0284973 0)
(9.11424 0.0309584 0)
(9.06267 0.0335093 0)
(9.0069 0.0361676 0)
(8.94682 0.0389519 0)
(8.88229 0.0418828 0)
(8.81315 0.0449831 0)
(8.73922 0.0482817 0)
(8.66035 0.0518185 0)
(8.5763 0.0556119 0)
(8.48654 0.0596683 0)
(8.39073 0.0640256 0)
(8.28847 0.0687368 0)
(8.17933 0.073847 0)
(8.06283 0.0794035 0)
(7.93841 0.0854584 0)
(7.80547 0.092081 0)
(7.66326 0.0993291 0)
(7.51107 0.1073 0)
(7.3478 0.116042 0)
(7.17275 0.125713 0)
(6.98414 0.136279 0)
(6.78164 0.148066 0)
(6.56192 0.16072 0)
(6.32636 0.17508 0)
(6.06756 0.189678 0)
(5.79273 0.207064 0)
(5.48312 0.22221 0)
(5.16411 0.242834 0)
(9.53402 0.00217814 0)
(9.52988 0.00494198 0)
(9.52137 0.00767944 0)
(9.50931 0.0103089 0)
(9.49337 0.0128511 0)
(9.47365 0.0153222 0)
(9.45012 0.0177492 0)
(9.42277 0.020156 0)
(9.3916 0.0225652 0)
(9.35658 0.0249973 0)
(9.31768 0.0274711 0)
(9.27485 0.0300049 0)
(9.22803 0.0326162 0)
(9.17714 0.035323 0)
(9.12208 0.0381435 0)
(9.06273 0.0410973 0)
(8.99897 0.0442057 0)
(8.93063 0.0474926 0)
(8.85752 0.0509873 0)
(8.77948 0.0547301 0)
(8.69635 0.0587459 0)
(8.60759 0.063045 0)
(8.51284 0.0676631 0)
(8.41171 0.0726549 0)
(8.30376 0.0780676 0)
(8.18854 0.0839514 0)
(8.06546 0.0903616 0)
(7.93397 0.0973712 0)
(7.79329 0.105042 0)
(7.64275 0.113477 0)
(7.48126 0.122728 0)
(7.30813 0.132964 0)
(7.12161 0.144152 0)
(6.92138 0.156636 0)
(6.70418 0.170058 0)
(6.47133 0.18529 0)
(6.21562 0.200837 0)
(5.94397 0.219331 0)
(5.63821 0.235643 0)
(5.32269 0.257705 0)
(9.63932 0.00225811 0)
(9.63522 0.0051406 0)
(9.62683 0.00800031 0)
(9.61495 0.0107517 0)
(9.59926 0.0134193 0)
(9.57984 0.016018 0)
(9.55667 0.0185752 0)
(9.52974 0.0211148 0)
(9.49903 0.0236599 0)
(9.46452 0.0262312 0)
(9.42617 0.0288481 0)
(9.38394 0.0315295 0)
(9.33775 0.0342936 0)
(9.28753 0.0371588 0)
(9.23317 0.0401444 0)
(9.17456 0.0432707 0)
(9.11156 0.0465598 0)
(9.04402 0.0500368 0)
(8.97174 0.0537315 0)
(8.89455 0.0576835 0)
(8.81232 0.0619244 0)
(8.72455 0.0664692 0)
(8.63087 0.0713517 0)
(8.53088 0.0766281 0)
(8.42415 0.0823477 0)
(8.31022 0.0885638 0)
(8.18852 0.0953343 0)
(8.0585 0.102736 0)
(7.91941 0.110836 0)
(7.77057 0.119741 0)
(7.61092 0.129509 0)
(7.43977 0.140316 0)
(7.25543 0.152134 0)
(7.05756 0.165322 0)
(6.84299 0.17952 0)
(6.61297 0.195634 0)
(6.36048 0.212142 0)
(6.0922 0.231755 0)
(5.79047 0.249251 0)
(5.47874 0.272767 0)
(9.74111 0.00233968 0)
(9.73705 0.00534178 0)
(9.72877 0.00832476 0)
(9.71705 0.0111992 0)
(9.70159 0.0139934 0)
(9.68245 0.0167209 0)
(9.65962 0.0194096 0)
(9.63308 0.0220836 0)
(9.60282 0.0247661 0)
(9.5688 0.0274785 0)
(9.53099 0.0302406 0)
(9.48933 0.0330718 0)
(9.44375 0.035991 0)
(9.39418 0.0390173 0)
(9.34051 0.0421706 0)
(9.28263 0.0454723 0)
(9.22039 0.0489453 0)
(9.15364 0.0526157 0)
(9.0822 0.0565141 0)
(9.00587 0.060679 0)
(8.92454 0.0651478 0)
(8.83776 0.0699411 0)
(8.74514 0.0750915 0)
(8.64629 0.0806563 0)
(8.54078 0.0866871 0)
(8.42816 0.09324 0)
(8.30786 0.100376 0)
(8.17934 0.108176 0)
(8.04186 0.116709 0)
(7.89476 0.126091 0)
(7.737 0.136381 0)
(7.5679 0.147766 0)
(7.3858 0.160221 0)
(7.19036 0.174121 0)
(6.97851 0.189103 0)
(6.75143 0.206107 0)
(6.50229 0.223587 0)
(6.23752 0.244327 0)
(5.94 0.263024 0)
(5.63231 0.288007 0)
(9.83969 0.00242294 0)
(9.83566 0.00554576 0)
(9.82748 0.00865311 0)
(9.81592 0.0116518 0)
(9.80066 0.0145738 0)
(9.78179 0.0174314 0)
(9.75928 0.020253 0)
(9.73311 0.0230629 0)
(9.70327 0.0258846 0)
(9.66972 0.0287399 0)
(9.63242 0.0316492 0)
(9.59132 0.0346324 0)
(9.54635 0.0377089 0)
(9.49741 0.0408987 0)
(9.44442 0.0442225 0)
(9.38725 0.0477024 0)
(9.32577 0.0513624 0)
(9.25981 0.0552294 0)
(9.18919 0.0593352 0)
(9.11372 0.0637169 0)
(9.03328 0.0684166 0)
(8.94749 0.0734611 0)
(8.85593 0.0788827 0)
(8.75822 0.0847397 0)
(8.65394 0.0910859 0)
(8.54262 0.0979798 0)
(8.42374 0.105486 0)
(8.29673 0.113688 0)
(8.16089 0.122661 0)
(8.01555 0.132524 0)
(7.85971 0.143343 0)
(7.6927 0.155312 0)
(7.51289 0.16841 0)
(7.31996 0.183029 0)
(7.11089 0.198802 0)
(6.88683 0.216704 0)
(6.64114 0.235165 0)
(6.38002 0.25704 0)
(6.08686 0.276953 0)
(5.78342 0.303412 0)
(9.93532 0.00250783 0)
(9.93132 0.00575274 0)
(9.92324 0.00898569 0)
(9.91182 0.01211 0)
(9.89676 0.015161 0)
(9.87814 0.0181501 0)
(9.85593 0.0211061 0)
(9.83011 0.0240534 0)
(9.80067 0.027016 0)
(9.76757 0.030016 0)
(9.73077 0.0330745 0)
(9.6902 0.0362117 0)
(9.6458 0.0394479 0)
(9.59749 0.0428037 0)
(9.54516 0.0463006 0)
(9.48869 0.0499615 0)
(9.42795 0.0538114 0)
(9.36277 0.0578782 0)
(9.29298 0.0621948 0)
(9.21837 0.0667975 0)
(9.13881 0.0717313 0)
(9.05399 0.0770295 0)
(8.96349 0.0827256 0)
(8.86691 0.0888787 0)
(8.76385 0.095544 0)
(8.65384 0.102783 0)
(8.53637 0.110664 0)
(8.41089 0.119274 0)
(8.27669 0.128691 0)
(8.13314 0.139041 0)
(7.97925 0.150393 0)
(7.81435 0.162952 0)
(7.63688 0.1767 0)
(7.44649 0.192044 0)
(7.24026 0.208615 0)
(7.0193 0.22742 0)
(6.77714 0.24687 0)
(6.51978 0.269888 0)
(6.23109 0.29103 0)
(5.93209 0.31897 0)
(10.0282 0.00259452 0)
(10.0243 0.00596291 0)
(10.0163 0.00932278 0)
(10.005 0.012574 0)
(9.99012 0.0157555 0)
(9.97173 0.0188776 0)
(9.94981 0.0219695 0)
(9.92432 0.0250558 0)
(9.89526 0.028161 0)
(9.86259 0.0313076 0)
(9.82626 0.0345171 0)
(9.78621 0.0378105 0)
(9.74237 0.0412087 0)
(9.69466 0.044733 0)
(9.64297 0.0484055 0)
(9.58719 0.0522502 0)
(9.52717 0.056293 0)
(9.46277 0.0605627 0)
(9.39379 0.0650935 0)
(9.32004 0.0699213 0)
(9.24136 0.0750925 0)
(9.15751 0.0806469 0)
(9.06805 0.0866211 0)
(8.97259 0.0930737 0)
(8.87073 0.100062 0)
(8.76203 0.107651 0)
(8.64597 0.11591 0)
(8.52201 0.124932 0)
(8.38946 0.134798 0)
(8.24771 0.14564 0)
(8.09578 0.157532 0)
(7.93302 0.170686 0)
(7.7579 0.185089 0)
(7.5701 0.201163 0)
(7.36675 0.218539 0)
(7.14894 0.238252 0)
(6.91037 0.258699 0)
(6.65686 0.282863 0)
(6.37275 0.305246 0)
(6.07834 0.33467 0)
(10.1187 0.0026836 0)
(10.1147 0.00617648 0)
(10.1068 0.00966467 0)
(10.0957 0.0130443 0)
(10.081 0.0163578 0)
(10.0628 0.0196144 0)
(10.0411 0.0228437 0)
(10.016 0.0260708 0)
(9.98727 0.0293203 0)
(9.955 0.0326153 0)
(9.91912 0.0359779 0)
(9.87957 0.0394297 0)
(9.83627 0.042992 0)
(9.78914 0.0466871 0)
(9.73808 0.0505379 0)
(9.68297 0.0545691 0)
(9.62367 0.0588076 0)
(9.56001 0.0632834 0)
(9.49184 0.0680316 0)
(9.41894 0.0730886 0)
(9.34114 0.0785009 0)
(9.25824 0.0843142 0)
(9.1698 0.0905696 0)
(9.07545 0.0973255 0)
(8.97479 0.104641 0)
(8.86738 0.112583 0)
(8.75271 0.121225 0)
(8.63027 0.130663 0)
(8.49937 0.140983 0)
(8.35942 0.152322 0)
(8.20945 0.164757 0)
(8.04885 0.178512 0)
(7.8761 0.193575 0)
(7.6909 0.210384 0)