/*--------------------------------*- C++ -*----------------------------------*\
| =========                 |                                                 |
| \\      /  F ield         | OpenFOAM: The Open Source CFD Toolbox           |
|  \\    /   O peration     | Version:  2506                                  |
|   \\  /    A nd           | Website:  www.openfoam.com                      |
|    \\/     M anipulation  |                                                 |
\*---------------------------------------------------------------------------*/
FoamFile
{
    version     2.0;
    format      ascii;
    arch        "LSB;label=32;scalar=64";
    class       volScalarField;
    location    "0";
    object      k;
}
// * * * * * * * * * * * * * * * * * * * * * * * * * * * * * * * * * * * * * //

dimensions      [0 2 -2 0 0 0 0];

internalField   nonuniform List<scalar> 
18163
(
0.00012356
0.00011853
0.000113686
0.000109026
0.000104556
0.000100288
9.62367e-05
9.2422e-05
8.88655e-05
8.55902e-05
8.26211e-05
7.99846e-05
7.77087e-05
7.58232e-05
7.43604e-05
7.33547e-05
7.28437e-05
7.28684e-05
7.34754e-05
7.47166e-05
7.66498e-05
7.93395e-05
8.2858e-05
8.72844e-05
9.2705e-05
9.92123e-05
0.000106902
0.000115873
0.000126217
0.000138021
0.000151351
0.000166245
0.000182694
0.000200625
0.000219859
0.00024007
0.000260709
0.000280876
0.000299149
0.000313366
0.000319657
0.000313828
0.000288553
0.000224914
0.000179467
1.86696e-05
7.53578e-05
7.0691e-05
6.65342e-05
6.28409e-05
5.95727e-05
5.66981e-05
5.41919e-05
5.20332e-05
5.02044e-05
4.86899e-05
4.74768e-05
4.65543e-05
4.59146e-05
4.55534e-05
4.54711e-05
4.56721e-05
4.61586e-05
4.69296e-05
4.79937e-05
4.93657e-05
5.10635e-05
5.31092e-05
5.55287e-05
5.83513e-05
6.16101e-05
6.53414e-05
6.95851e-05
7.43843e-05
7.9785e-05
8.58361e-05
9.2589e-05
0.000100097
0.000108416
0.000117601
0.000127703
0.000138769
0.00015083
0.000163885
0.000177899
0.000192815
0.000208536
0.000224478
0.000238135
0.000242728
0.000240543
0.000181842
0.00041912
0.000390445
0.000365275
0.000343275
0.000324159
0.000307689
0.000293665
0.000281917
0.000272292
0.000264658
0.000258893
0.000254892
0.00025257
0.000251866
0.000252748
0.000255213
0.000259239
0.000264766
0.000271817
0.000280443
0.000290718
0.000302732
0.0003166
0.00033245
0.000350434
0.000370719
0.000393494
0.00041897
0.000447381
0.000478993
0.000514107
0.000553068
0.000596277
0.000644203
0.0006974
0.00075652
0.000822331
0.000895743
0.000977902
0.00107053
0.00117681
0.00129624
0.00141839
0.00151512
0.00154635
0.00130121
0.00153751
0.00143173
0.00133892
0.00125785
0.00118746
0.00112686
0.0010753
0.00103215
0.000996844
0.000968883
0.000947815
0.000933248
0.000924858
0.000922414
0.000925793
0.000934978
0.000949869
0.000970198
0.000996087
0.00102771
0.00106533
0.00110928
0.00115995
0.00121781
0.00128341
0.00135735
0.0014403
0.00153303
0.00163638
0.00175131
0.00187892
0.00202046
0.00217739
0.00235144
0.00254464
0.00275941
0.00299862
0.00326567
0.00356485
0.00390247
0.00429034
0.00472378
0.00516647
0.00552083
0.00563238
0.00479069
0.00405297
0.00377379
0.00352885
0.00331484
0.00312898
0.00296895
0.00283277
0.00271876
0.00262545
0.00255151
0.00249575
0.00245714
0.00243483
0.0024282
0.00243691
0.00246094
0.00249988
0.00255304
0.0026208
0.00270362
0.00280217
0.00291729
0.00305002
0.00320159
0.00337337
0.00356695
0.00378405
0.00402666
0.00429693
0.00459735
0.00493071
0.00530023
0.00570966
0.00616339
0.00666663
0.00722553
0.00784735
0.00854065
0.00931599
0.0101885
0.0111862
0.0122862
0.0133962
0.0142721
0.0144973
0.0123808
0.00873328
0.0081318
0.00760389
0.00714251
0.00674168
0.00639641
0.00610247
0.00585628
0.00565465
0.00549477
0.00537408
0.00529036
0.00524177
0.00522697
0.00524524
0.00529653
0.00537944
0.00549279
0.00563748
0.00581444
0.00602506
0.00627111
0.00655477
0.00687856
0.00724539
0.00765851
0.00812156
0.00863858
0.00921408
0.00985312
0.0105614
0.0113456
0.0122133
0.0131735
0.0142366
0.0154151
0.0167234
0.0181785
0.0198004
0.0216165
0.0236759
0.0259059
0.028115
0.0298109
0.0300787
0.0257396
0.0164441
0.0153141
0.0143217
0.0134538
0.0126994
0.0120491
0.0114952
0.0110309
0.0106504
0.0103484
0.0101201
0.00996142
0.00986889
0.00983997
0.00987324
0.00996877
0.0101221
0.0103327
0.0106018
0.0109312
0.0113233
0.0117812
0.0123088
0.0129107
0.0135918
0.0143581
0.0152159
0.0161723
0.0172351
0.0184131
0.0197163
0.021156
0.0227452
0.0244994
0.0264362
0.0285767
0.0309448
0.0335679
0.0364763
0.0397081
0.0433274
0.0471586
0.0508609
0.0535835
0.053633
0.0459975
0.0280496
0.0261336
0.0244489
0.022974
0.0216907
0.0205833
0.0196391
0.0188469
0.0181969
0.0176804
0.0172893
0.0170167
0.0168568
0.0168052
0.0168593
0.0170188
0.0172741
0.0176266
0.0180778
0.0186302
0.0192876
0.0200549
0.0209381
0.021944
0.0230808
0.0243572
0.0257829
0.0273688
0.0291266
0.0310695
0.0332123
0.0355718
0.0381673
0.0410213
0.0441596
0.0476122
0.0514125
0.0555965
0.0602
0.0652594
0.0708272
0.0765636
0.0819318
0.0856437
0.085024
0.0732256
0.0442331
0.0412463
0.0386151
0.0363076
0.0342963
0.0325582
0.0310738
0.0298265
0.0288013
0.0279851
0.0273657
0.0269323
0.0266758
0.0265892
0.0266684
0.0269101
0.0272996
0.0278401
0.0285336
0.0293831
0.0303935
0.0315715
0.0329252
0.034464
0.0361987
0.0381412
0.0403044
0.0427025
0.0453512
0.0482677
0.0514711
0.0549831
0.0588285
0.0630357
0.0676369
0.0726682
0.0781679
0.0841728
0.0907109
0.0977917
0.10541
0.113021
0.119868
0.124222
0.122432
0.106198
0.0652652
0.0609384
0.0571164
0.0537561
0.0508203
0.0482774
0.0461009
0.0442677
0.0427576
0.0415519
0.0406337
0.0399875
0.0396003
0.0394616
0.0395652
0.0398991
0.0404475
0.0412144
0.042201
0.0434104
0.0448483
0.0465222
0.0484418
0.0506185
0.0530648
0.0557949
0.058824
0.0621688
0.0658472
0.0698791
0.0742864
0.0790937
0.0843287
0.0900223
0.0962086
0.102924
0.110201
0.118065
0.126516
0.135507
0.144926
0.154031
0.161859
0.166321
0.16302
0.142817
0.090837
0.0849645
0.0797593
0.0751682
0.0711448
0.0676496
0.0646492
0.0621147
0.0600201
0.0583416
0.0570571
0.0561462
0.0555911
0.0553771
0.0554963
0.0559177
0.0566349
0.0576481
0.058957
0.0605637
0.0624733
0.0646934
0.067234
0.0701069
0.0733256
0.0769047
0.0808605
0.08521
0.0899721
0.0951672
0.100818
0.106948
0.113585
0.120758
0.128496
0.136825
0.145765
0.155311
0.165418
0.175961
0.186695
0.196738
0.20496
0.209046
0.204171
0.180979
0.120103
0.11257
0.105867
0.0999337
0.0947156
0.0901671
0.0862491
0.0829276
0.080172
0.0779538
0.0762461
0.0750234
0.074263
0.0739455
0.0740558
0.0745499
0.0754275
0.0766847
0.0783183
0.0803281
0.0827176
0.085493
0.0886635
0.0922399
0.096235
0.100663
0.105539
0.110879
0.116702
0.123026
0.129871
0.137259
0.145211
0.15375
0.162893
0.172649
0.183011
0.193935
0.205322
0.216967
0.228487
0.238945
0.247094
0.250513
0.244245
0.219185
0.151942
0.14272
0.134481
0.127161
0.1207
0.115047
0.11016
0.106001
0.102536
0.0997317
0.0975582
0.0959854
0.0949855
0.0945343
0.0946025
0.0951445
0.0961603
0.0976413
0.0995803
0.101974
0.104823
0.108132
0.111907
0.116157
0.120894
0.126129
0.131876
0.13815
0.144965
0.152336
0.16028
0.168812
0.177944
0.187685
0.198036
0.208982
0.220481
0.232451
0.244737
0.257072
0.268946
0.279443
0.287242
0.28991
0.282551
0.256618
0.18527
0.174389
0.164632
0.155931
0.148224
0.141457
0.135585
0.130567
0.126368
0.122952
0.120285
0.118333
0.117065
0.116454
0.116444
0.117006
0.118132
0.119808
0.122023
0.12477
0.128045
0.13185
0.13619
0.141069
0.146497
0.152483
0.159038
0.166172
0.173897
0.182222
0.191155
0.200703
0.210866
0.221635
0.23299
0.244889
0.257257
0.269972
0.282838
0.295546
0.307484
0.317801
0.325141
0.327108
0.318988
0.292955
0.21924
0.206759
0.195531
0.185485
0.176556
0.168691
0.161842
0.155966
0.151027
0.146988
0.143812
0.141464
0.139907
0.139106
0.138993
0.13955
0.14076
0.142603
0.145065
0.148133
0.1518
0.156065
0.160927
0.166391
0.172461
0.179142
0.186443
0.194367
0.202922
0.212107
0.221924
0.232364
0.243414
0.255046
0.267217
0.279858
0.292866
0.306086
0.31929
0.332142
0.343996
0.354036
0.360913
0.362303
0.353729
0.328156
0.253284
0.239275
0.226633
0.215289
0.205179
0.196245
0.188439
0.18172
0.176047
0.171385
0.167696
0.164941
0.163082
0.162069
0.161837
0.162369
0.163642
0.16563
0.168314
0.171676
0.175707
0.180399
0.18575
0.191759
0.198427
0.205755
0.213745
0.222396
0.231705
0.241665
0.252265
0.263482
0.275287
0.287634
0.300457
0.313666
0.327133
0.340679
0.354057
0.366917
0.378616
0.388362
0.394834
0.395794
0.387035
0.362315
0.287083
0.271609
0.257611
0.24502
0.23377
0.223802
0.215069
0.207525
0.201134
0.195858
0.191657
0.188493
0.186326
0.185085
0.184725
0.18522
0.18654
0.188657
0.191543
0.195179
0.19955
0.204644
0.210455
0.216977
0.224205
0.232136
0.240764
0.250082
0.260077
0.270732
0.282021
0.293911
0.306354
0.319286
0.332626
0.346263
0.360052
0.373801
0.387251
0.400047
0.411574
0.421054
0.427205
0.427889
0.419172
0.395577
0.320486
0.303604
0.288301
0.274508
0.262159
0.251193
0.24156
0.233217
0.226125
0.220246
0.215542
0.211972
0.20949
0.208019
0.207525
0.207975
0.209334
0.211566
0.214641
0.218535
0.223228
0.228703
0.234948
0.241953
0.249707
0.258201
0.26742
0.277348
0.287964
0.299238
0.311133
0.3236
0.336578
0.349989
0.363736
0.377694
0.391708
0.405578
0.419041
0.431748
0.443115
0.45238
0.458306
0.458856
0.450375
0.428086
0.353459
0.335212
0.318646
0.303691
0.290277
0.278345
0.267841
0.258722
0.250948
0.244481
0.239283
0.235311
0.232511
0.230813
0.230184
0.230584
0.231974
0.234313
0.237567
0.241705
0.246703
0.25254
0.259196
0.266657
0.274904
0.283921
0.293685
0.30417
0.315345
0.327169
0.339592
0.352554
0.365981
0.379783
0.393851
0.408052
0.422224
0.436165
0.449615
0.462231
0.47347
0.482581
0.488377
0.488924
0.480838
0.459976
0.38603
0.366454
0.348657
0.33257
0.318122
0.305249
0.293899
0.284025
0.275586
0.268545
0.262862
0.258498
0.255379
0.253457
0.252692
0.25304
0.254455
0.256893
0.260315
0.264686
0.269974
0.276153
0.283199
0.291088
0.299796
0.309297
0.319561
0.330553
0.342229
0.35454
0.367424
0.38081
0.394613
0.408736
0.42306
0.437448
0.451735
0.465719
0.479149
0.491691
0.50284
0.511861
0.517616
0.518277
0.510718
0.491357
0.418265
0.397385
0.378381
0.361186
0.345725
0.331935
0.319757
0.309145
0.300057
0.292454
0.286297
0.281538
0.278108
0.275965
0.275064
0.275356
0.276792
0.279322
0.282902
0.287492
0.293055
0.299558
0.30697
0.31526
0.324397
0.334345
0.345067
0.356517
0.368642
0.381383
0.394668
0.408418
0.42254
0.436927
0.451459
0.465995
0.480371
0.494388
0.507803
0.520296
0.531398
0.540392
0.546187
0.547063
0.540138
0.522318
0.450249
0.428079
0.407886
0.389598
0.373142
0.358449
0.34546
0.334124
0.324398
0.316243
0.309619
0.304466
0.30073
0.298367
0.297328
0.297561
0.299011
0.301625
0.305352
0.310148
0.31597
0.322777
0.330531
0.339195
0.348729
0.359089
0.370228
0.382091
0.394618
0.407739
0.421375
0.435439
0.449831
0.464442
0.479146
0.493805
0.508255
0.522305
0.535719
0.548192
0.559289
0.568313
0.574222
0.575401
0.569196
0.552929
0.48207
0.458621
0.437248
0.417878
0.400437
0.384852
0.371061
0.359011
0.348656
0.339955
0.332865
0.327322
0.323283
0.320699
0.319519
0.319687
0.321143
0.323831
0.327695
0.332682
0.338744
0.345835
0.353909
0.36292
0.372819
0.383556
0.395074
0.40731
0.420196
0.433653
0.447597
0.461933
0.476559
0.49136
0.506213
0.520978
0.535498
0.549587
0.563019
0.575501
0.586635
0.595743
0.60183
0.603385
0.597968
0.583249
0.513811
0.489096
0.466545
0.446098
0.427676
0.411205
0.396619
0.38386
0.372881
0.363639
0.356078
0.35015
0.345806
0.343
0.341674
0.341769
0.343223
0.345973
0.349959
0.355122
0.361407
0.368761
0.37713
0.38646
0.396695
0.407776
0.419638
0.43221
0.445417
0.459173
0.473388
0.487963
0.502792
0.51776
0.532744
0.547607
0.562197
0.576336
0.589807
0.602329
0.613537
0.622777
0.629099
0.631091
0.626514
0.613322
0.545564
0.51958
0.495859
0.474333
0.454931
0.437575
0.422194
0.408728
0.397127
0.387338
0.379308
0.372993
0.368343
0.365308
0.363829
0.363842
0.365283
0.368082
0.372175
0.377498
0.383986
0.391581
0.400221
0.409843
0.420386
0.43178
0.443953
0.456828
0.470322
0.484344
0.498799
0.513585
0.528595
0.543713
0.558817
0.573775
0.58844
0.602642
0.616173
0.628765
0.640081
0.649495
0.656101
0.658582
0.65488
0.643188
0.57742
0.550156
0.525257
0.502654
0.482268
0.464023
0.447846
0.433671
0.421441
0.411101
0.402601
0.395895
0.390934
0.387662
0.38602
0.385942
0.387356
0.39019
0.394374
0.399837
0.406509
0.414323
0.423209
0.433099
0.44392
0.455598
0.468053
0.4812
0.494951
0.509211
0.523881
0.538856
0.554028
0.569283
0.584501
0.599555
0.614302
0.628582
0.642195
0.654884
0.666339
0.675965
0.682897
0.685907
0.683107
0.672879
0.609466
0.580907
0.554817
0.531125
0.509751
0.490612
0.473631
0.458738
0.445873
0.434978
0.426003
0.418901
0.413619
0.410101
0.408285
0.408101
0.409473
0.412327
0.416584
0.422168
0.429003
0.437013
0.446122
0.456253
0.467327
0.479261
0.49197
0.505362
0.519345
0.533818
0.548681
0.563827
0.579147
0.594531
0.60986
0.625011
0.639851
0.654223
0.667939
0.68075
0.692371
0.702242
0.709536
0.713108
0.711226
0.702422
0.641786
0.611914
0.584615
0.559819
0.537442
0.517397
0.499602
0.483983
0.470474
0.459017
0.449559
0.44205
0.436437
0.432662
0.430658
0.430352
0.431668
0.434523
0.438834
0.444519
0.451495
0.459678
0.468986
0.479334
0.490634
0.502799
0.515736
0.529349
0.543539
0.558205
0.573242
0.588544
0.604003
0.619509
0.634948
0.650203
0.665144
0.679623
0.693462
0.70642
0.718231
0.728375
0.73606
0.740219
0.739264
0.731843
0.674464
0.643254
0.614723
0.588803
0.565406
0.544439
0.525817
0.509459
0.495295
0.483265
0.473313
0.465385
0.459428
0.45538
0.453172
0.452729
0.453969
0.456806
0.461151
0.466916
0.47401
0.482344
0.491827
0.502367
0.51387
0.526242
0.539383
0.553194
0.567571
0.582411
0.597607
0.613053
0.628643
0.644267
0.659818
0.67518
0.690233
0.704834
0.718814
0.731941
0.743962
0.754402
0.762504
0.76727
0.767242
0.761164
0.707581
0.675004
0.645216
0.618147
0.593706
0.571799
0.552331
0.535217
0.520385
0.507767
0.497306
0.488945
0.482628
0.47829
0.475861
0.475262
0.476406
0.479205
0.483563
0.489385
0.496576
0.505037
0.514671
0.525379
0.537061
0.549616
0.56294
0.576928
0.591474
0.606472
0.621814
0.637394
0.653108
0.668849
0.684513
0.69999
0.715164
0.729901
0.744038
0.757356
0.769604
0.78036
0.788899
0.794284
0.795182
0.790405
0.74122
0.707243
0.676166
0.647918
0.622408
0.599535
0.579199
0.561311
0.545791
0.532568
0.521581
0.51277
0.506074
0.501428
0.498758
0.497982
0.49901
0.501748
0.506096
0.511953
0.519216
0.52778
0.537542
0.548395
0.560234
0.57295
0.586436
0.600582
0.61528
0.630421
0.645897
0.661604
0.677437
0.693294
0.709074
0.724672
0.739977
0.754862
0.769172
0.782699
0.79519
0.806279
0.81527
0.821285
0.823101
0.819585
0.775461
0.740046
0.707644
0.678185
0.651574
0.627707
0.606478
0.587792
0.571562
0.557713
0.54618
0.536897
0.529803
0.524828
0.521895
0.52092
0.521809
0.524462
0.528777
0.534644
0.541956
0.5506
0.560466
0.571441
0.583413
0.59627
0.609898
0.624185
0.639019
0.65429
0.669891
0.685717
0.701666
0.717639
0.733538
0.749263
0.764708
0.779753
0.794248
0.807998
0.820749
0.832184
0.841641
0.848291
0.851015
0.848722
0.810388
0.773493
0.739725
0.709016
0.681269
0.656375
0.634223
0.614711
0.597746
0.583248
0.571144
0.561368
0.553852
0.548524
0.545305
0.544106
0.544831
0.547376
0.551632
0.557485
0.56482
0.57352
0.583466
0.59454
0.606625
0.619601
0.633353
0.647764
0.66272
0.67811
0.693827
0.709766
0.725828
0.741917
0.757938
0.773796
0.78939
0.804605
0.819298
0.833282
0.846308
0.858099
0.868032
0.875318
0.878939
0.877832
0.846086
0.807662
0.772483
0.740482
0.711559
0.685601
0.662492
0.642122
0.624393
0.609217
0.596517
0.586221
0.578257
0.572551
0.56902
0.567572
0.568107
0.570517
0.574688
0.580501
0.587835
0.596565
0.606567
0.617718
0.629893
0.64297
0.656827
0.671346
0.68641
0.701908
0.717733
0.73378
0.749953
0.766159
0.782305
0.798302
0.814052
0.829446
0.844347
0.858575
0.871889
0.884045
0.89446
0.902384
0.906886
0.90693
0.882642
0.842637
0.805997
0.772655
0.742512
0.715448
0.691343
0.67008
0.651552
0.635667
0.622341
0.611496
0.603057
0.596945
0.593074
0.591348
0.591666
0.593913
0.597972
0.603718
0.611024
0.619759
0.629794
0.640998
0.653242
0.6664
0.680345
0.694956
0.710117
0.725712
0.741637
0.757787
0.774069
0.790391
0.806666
0.822806
0.838719
0.854301
0.869419
0.883902
0.897513
0.910041
0.920942
0.929501
0.93487
0.936032
0.920148
0.878504
0.840346
0.805611
0.774197
0.745981
0.720836
0.698639
0.679277
0.662647
0.648661
0.637235
0.62829
0.621741
0.6175
0.615467
0.615537
0.617593
0.621511
0.627162
0.634412
0.643127
0.653169
0.664404
0.676696
0.689915
0.703931
0.71862
0.733864
0.749547
0.765564
0.781814
0.798202
0.814641
0.831046
0.847334
0.863416
0.879192
0.894536
0.909282
0.923201
0.936102
0.947493
0.956683
0.962902
0.965152
0.958698
0.915352
0.875616
0.839429
0.806688
0.777269
0.751036
0.72786
0.70762
0.690207
0.675524
0.663482
0.653996
0.646977
0.642333
0.639962
0.639753
0.641586
0.645333
0.65086
0.658027
0.666694
0.676719
0.68796
0.700279
0.713539
0.727609
0.742362
0.757676
0.773438
0.78954
0.805883
0.822375
0.838931
0.855469
0.871908
0.888165
0.904141
0.919717
0.934733
0.948968
0.962246
0.974126
0.983942
0.990995
0.994302
0.998395
0.953276
0.911895
0.874191
0.840064
0.809383
0.782009
0.757804
0.73664
0.7184
0.702979
0.690282
0.680217
0.672693
0.667611
0.664867
0.664345
0.665923
0.669468
0.674839
0.681894
0.690486
0.700467
0.711691
0.724015
0.737297
0.751403
0.766204
0.781577
0.797407
0.813587
0.830019
0.846613
0.863285
0.879957
0.89655
0.912984
0.929167
0.944981
0.960274
0.974832
0.988486
1.00085
1.01129
1.01916
1.0235
1.03934
0.992377
0.949277
0.909988
0.874406
0.842401
0.813826
0.788537
0.766397
0.747281
0.731077
0.717682
0.706998
0.698928
0.693371
0.690217
0.689348
0.690636
0.693944
0.699129
0.706041
0.714528
0.724439
0.735621
0.747927
0.761211
0.775336
0.79017
0.805589
0.821477
0.837728
0.854244
0.870937
0.887724
0.90453
0.921279
0.937894
0.954286
0.970343
0.985918
1.00081
1.01484
1.02769
1.03874
1.0474
1.05274
1.08166
1.03276
0.987865
0.946912
0.909803
0.876404
0.846563
0.820128
0.796956
0.776911
0.759874
0.745733
0.734386
0.725728
0.719654
0.716051
0.714796
0.715757
0.718794
0.723758
0.730495
0.738849
0.748661
0.759776
0.77204
0.785306
0.799432
0.814284
0.829736
0.845672
0.861985
0.878579
0.895367
0.912267
0.929207
0.946114
0.962912
0.979516
0.995818
1.01168
1.02691
1.04131
1.05464
1.06629
1.07574
1.08206
1.12547
1.07455
1.02777
0.985066
0.94635
0.91148
0.880301
0.852654
0.828385
0.807353
0.789427
0.77449
0.76243
0.753138
0.746503
0.742408
0.740726
0.741322
0.74405
0.748758
0.755287
0.763475
0.77316
0.784181
0.79638
0.809606
0.823714
0.838568
0.854039
0.870012
0.88638
0.903045
0.919923
0.936934
0.954007
0.971071
0.988053
1.00487
1.02142
1.03757
1.05314
1.06792
1.08172
1.09397
1.10418
1.11145
1.17089
1.11786
1.0691
1.02456
0.984148
0.947725
0.915129
0.886195
0.860761
0.838675
0.819801
0.80401
0.791184
0.781208
0.773965
0.769332
0.76718
0.767369
0.769748
0.774162
0.780447
0.788437
0.797964
0.808863
0.820972
0.834136
0.848206
0.863045
0.878522
0.89452
0.910932
0.927662
0.944625
0.961744
0.978948
0.996168
1.01333
1.03037
1.04717
1.06361
1.07951
1.09467
1.10894
1.12178
1.13274
1.14094
1.21809
1.16283
1.11199
1.06551
1.02331
0.985241
0.951142
0.920839
0.894163
0.870954
0.851064
0.834357
0.820707
0.809991
0.802088
0.796869
0.7942
0.793936
0.795925
0.800005
0.806009
0.813766
0.823103
0.83385
0.845843
0.858921
0.872933
0.887738
0.903206
0.919216
0.935663
0.95245
0.969493
0.986714
1.00405
1.02142
1.03877
1.05602
1.07307
1.0898
1.10604
1.12158
1.13631
1.14973
1.16141
1.17052
1.2672
1.20961
1.15657
1.10805
1.06395
1.02414
0.988444
0.956684
0.928682
0.90427
0.883291
0.8656
0.851062
0.839547
0.830926
0.825068
0.821831
0.821068
0.822621
0.826325
0.832008
0.839494
0.848607
0.859172
0.87102
0.883987
0.897919
0.912673
0.928114
0.944124
0.960594
0.977429
0.994543
1.01186
1.02932
1.04684
1.06438
1.08184
1.09914
1.11615
1.13274
1.14866
1.16385
1.17783
1.19022
1.20021
1.3184
1.25835
1.203
1.15232
1.10621
1.06455
1.02715
0.993834
0.964415
0.938714
0.916565
0.897814
0.882318
0.869938
0.860539
0.853982
0.850124
0.84881
0.849879
0.853161
0.858481
0.865657
0.87451
0.88486
0.896533
0.909363
0.923192
0.937872
0.953271
0.969265
0.985746
1.00262
1.0198
1.03721
1.05478
1.07246
1.09017
1.10784
1.12538
1.14269
1.15961
1.17593
1.19155
1.20608
1.21917
1.23002
1.37187
1.30924
1.25144
1.19847
1.15024
1.1066
1.06739
1.03241
1.00147
0.974383
0.950976
0.931083
0.91455
0.901234
0.890989
0.883672
0.879132
0.877212
0.877745
0.880557
0.885468
0.892293
0.900846
0.910946
0.922413
0.935077
0.948777
0.963363
0.978699
0.994662
1.01114
1.02804
1.04527
1.06276
1.08045
1.09827
1.11615
1.13403
1.15182
1.16941
1.18667
1.20338
1.21943
1.23451
1.24827
1.25996
1.36246
1.30208
1.24668
1.19618
1.15044
1.10929
1.07253
1.03996
1.01139
0.986623
0.965496
0.947844
0.933511
0.922347
0.914201
0.908916
0.90633
0.90627
0.90856
0.913013
0.919441
0.927655
0.937466
0.948693
0.96116
0.974705
0.989173
1.00443
1.02034
1.0368
1.05371
1.07099
1.08855
1.10635
1.1243
1.14235
1.16043
1.17847
1.19634
1.21392
1.23103
1.2475
1.26311
1.27752
1.29004
1.41822
1.3551
1.29713
1.24422
1.19624
1.15302
1.11434
1.08002
1.04985
1.02362
1.00116
0.98229
0.966855
0.954692
0.945641
0.939541
0.936223
0.93551
0.93722
0.941163
0.947146
0.954975
0.964458
0.975407
0.987646
1.001
1.01533
1.03048
1.04632
1.06274
1.07965
1.09696
1.11459
1.13248
1.15056
1.16878
1.18706
1.20532
1.22347
1.24139
1.25887
1.27578
1.2919
1.30695
1.32026
1.47676
1.41075
1.35003
1.29456
1.24418
1.19873
1.15801
1.1218
1.08989
1.06208
1.03818
1.01799
1.00136
0.988108
0.97807
0.971079
0.966958
0.965526
0.966595
0.969971
0.975457
0.982852
0.991962
1.0026
1.01457
1.02771
1.04186
1.05688
1.07263
1.089
1.10589
1.12322
1.1409
1.15887
1.17708
1.19545
1.21392
1.23241
1.25083
1.26907
1.28693
1.30427
1.32089
1.33656
1.35065
1.53835
1.46925
1.40562
1.3474
1.29447
1.24664
1.20371
1.16546
1.13168
1.10216
1.07668
1.05507
1.03713
1.02269
1.01158
1.00361
0.998608
0.996384
0.996746
0.999494
1.00442
1.01133
1.02002
1.0303
1.04197
1.05486
1.06881
1.08366
1.0993
1.1156
1.13245
1.14978
1.1675
1.18555
1.20386
1.22237
1.24102
1.25974
1.27843
1.29698
1.31521
1.33298
1.35008
1.36635
1.38119
1.60327
1.5309
1.46416
1.40301
1.34733
1.29693
1.25163
1.21118
1.17538
1.144
1.11682
1.09365
1.07429
1.05855
1.04626
1.03722
1.03125
1.02816
1.02774
1.02979
1.03411
1.04048
1.04869
1.05856
1.06988
1.08248
1.09619
1.11086
1.12636
1.14256
1.15936
1.17667
1.19441
1.21251
1.23092
1.24957
1.26839
1.28732
1.30627
1.32513
1.34372
1.36192
1.3795
1.39635
1.41192
1.67184
1.59598
1.52593
1.46165
1.40302
1.34987
1.302
1.25918
1.22118
1.18777
1.15874
1.13387
1.11296
1.09581
1.08222
1.07202
1.06499
1.06094
1.05966
1.06094
1.06457
1.07033
1.07802
1.08743
1.09836
1.11063
1.12407
1.13851
1.15384
1.16991
1.18663
1.2039
1.22165
1.2398
1.25829
1.27706
1.29604
1.31518
1.33437
1.35352
1.37248
1.3911
1.40914
1.42655
1.44283
1.74444
1.66486
1.59127
1.52363
1.46183
1.40571
1.35507
1.30967
1.26929
1.23369
1.20263
1.17591
1.1533
1.13459
1.1196
1.10811
1.09991
1.09481
1.09258
1.09301
1.09588
1.10097
1.10807
1.11696
1.12745
1.13934
1.15246
1.16665
1.18177
1.19769
1.21431
1.23152
1.24925
1.26742
1.28598
1.30485
1.32399
1.34331
1.36275
1.38219
1.40149
1.42052
1.43903
1.45698
1.47395
1.82146
1.73792
1.66054
1.5893
1.52409
1.46477
1.41113
1.36294
1.31996
1.28196
1.2487
1.21994
1.19547
1.17507
1.15852
1.14562
1.13614
1.12988
1.1266
1.12609
1.12812
1.13247
1.13891
1.14722
1.15721
1.16867
1.18143
1.19532
1.2102
1.22594
1.24241
1.25954
1.27723
1.29541
1.31401
1.33298
1.35225
1.37175
1.39141
1.41113
1.43076
1.4502
1.46917
1.48763
1.50526
1.90339
1.81561
1.73416
1.65905
1.59018
1.52739
1.4705
1.41927
1.37347
1.33285
1.29717
1.26619
1.23968
1.21741
1.19916
1.1847
1.17381
1.16627
1.16183
1.16028
1.16138
1.1649
1.1706
1.17827
1.18769
1.19867
1.21102
1.22457
1.23917
1.25468
1.27099
1.288
1.30562
1.32378
1.34241
1.36145
1.38084
1.40051
1.42038
1.44036
1.46032
1.48014
1.49957
1.51854
1.5368
1.99074
1.89842
1.81262
1.73333
1.6605
1.59397
1.53355
1.47902
1.43013
1.38665
1.34832
1.31489
1.28614
1.26181
1.24168
1.22551
1.21306
1.2041
1.19839
1.19569
1.19576
1.19835
1.20324
1.21019
1.21898
1.22941
1.24129
1.25444
1.26871
1.28396
1.30007
1.31693
1.33446
1.35258
1.37121
1.39031
1.40979
1.4296
1.44967
1.4699
1.49017
1.51036
1.53025
1.5497
1.56857
2.08412
1.98692
1.89644
1.81267
1.73555
1.66496
1.60071
1.54257
1.49031
1.44369
1.40244
1.36633
1.3351
1.30851
1.2863
1.26824
1.25407
1.24355
1.23643
1.23245
1.23137
1.23294
1.23691
1.24305
1.25114
1.26096
1.2723
1.28501
1.2989
1.31384
1.3297
1.34638
1.36378
1.38182
1.40044
1.41956
1.43912
1.45906
1.4793
1.49977
1.52032
1.54087
1.5612
1.58113
1.60059
2.18418
2.08178
1.98626
1.89764
1.81589
1.74089
1.67245
1.61038
1.55443
1.50436
1.45991
1.42083
1.38687
1.35776
1.33326
1.3131
1.29703
1.28478
1.27608
1.27069
1.26834
1.26877
1.27173
1.27697
1.28426
1.29338
1.30413
1.31632
1.32978
1.34436
1.35993
1.37639
1.39362
1.41156
1.43012
1.44924
1.46885
1.4889
1.5093
1.52997
1.55081
1.5717
1.59244
1.61285
1.63286
2.29141
2.18354
2.0827
1.9889
1.90215
1.82235
1.74936
1.68298
1.62297
1.56911
1.52112
1.47877
1.44178
1.40989
1.38284
1.36036
1.34216
1.32799
1.31755
1.31059
1.30682
1.30598
1.30781
1.31204
1.31844
1.32679
1.33686
1.34846
1.36142
1.37559
1.39082
1.407
1.42403
1.44182
1.46029
1.47938
1.49902
1.51915
1.53968
1.56055
1.58164
1.60285
1.62399
1.64488
1.66541
2.40597
2.29252
2.18618
2.087
1.99496
1.91003
1.83208
1.76097
1.69651
1.63846
1.58656
1.54057
1.50022
1.46524
1.43536
1.41029
1.38973
1.37341
1.36104
1.35233
1.34698
1.34473
1.34528
1.34839
1.3538
1.36127
1.37057
1.38151
1.3939
1.40758
1.42242
1.43827
1.45505
1.47265
1.491
1.51003
1.52966
1.54984
1.57048
1.59152
1.61284
1.63434
1.65587
1.67721
1.69826
2.52824
2.40896
2.2969
2.19215
2.09468
2.00442
1.92125
1.84505
1.77569
1.71302
1.65679
1.60676
1.56267
1.52425
1.4912
1.46323
1.44005
1.42134
1.4068
1.39612
1.38902
1.38518
1.38432
1.38617
1.39046
1.39694
1.40537
1.41556
1.4273
1.44043
1.4548
1.47027
1.48674
1.50411
1.52229
1.54122
1.56081
1.581
1.60173
1.6229
1.64443
1.66621
1.68808
1.70985
1.73141
2.65878
2.5333
2.41522
2.30461
2.20148
2.10572
2.0172
1.93575
1.86121
1.79349
1.73246
1.67794
1.62967
1.58739
1.5508
1.5196
1.49346
1.47207
1.4551
1.44224
1.43316
1.42755
1.4251
1.42554
1.42857
1.43393
1.44139
1.45072
1.46173
1.47422
1.48805
1.50307
1.51918
1.53625
1.55422
1.573
1.59251
1.61269
1.63345
1.65474
1.67645
1.69847
1.72067
1.74284
1.7649
2.79818
2.66618
2.54172
2.42492
2.31578
2.21423
2.12011
2.03325
1.95342
1.88049
1.8143
1.75481
1.70186
1.65525
1.61469
1.57985
1.5504
1.52599
1.50629
1.49096
1.47966
1.47206
1.46784
1.46668
1.46829
1.47241
1.47876
1.48712
1.49728
1.50905
1.52225
1.53675
1.55242
1.56915
1.58684
1.60542
1.62481
1.64493
1.6657
1.68707
1.70892
1.73115
1.75365
1.77619
1.79873
2.94719
2.80829
2.67711
2.55374
2.43821
2.33049
2.23041
2.13782
2.05248
1.97422
1.90278
1.83807
1.77999
1.72854
1.6835
1.64455
1.61135
1.58354
1.56076
1.54265
1.52886
1.51901
1.51278
1.50983
1.50984
1.51254
1.51764
1.5249
1.5341
1.54503
1.55752
1.57141
1.58656
1.60287
1.62023
1.63856
1.65776
1.67778
1.69852
1.71992
1.74188
1.7643
1.78705
1.80994
1.83291
3.10646
2.96041
2.82212
2.6918
2.56951
2.4552
2.34876
2.25004
2.15881
2.0749
1.99804
1.92806
1.8647
1.80802
1.75796
1.71437
1.67692
1.64526
1.61899
1.59773
1.5811
1.56872
1.56021
1.55523
1.55344
1.55454
1.55822
1.56423
1.57233
1.58231
1.59397
1.60715
1.62171
1.63751
1.65447
1.67247
1.69144
1.7113
1.73196
1.75335
1.77538
1.79794
1.82092
1.8441
1.86748
3.27645
3.12324
2.97757
2.83991
2.71044
2.58916
2.47593
2.37065
2.27308
2.1831
2.10041
2.02489
1.95623
1.89426
1.83888
1.7901
1.74783
1.71178
1.68153
1.65669
1.63685
1.62158
1.61049
1.60321
1.59937
1.59864
1.60072
1.60531
1.61216
1.62104
1.63175
1.64411
1.65796
1.67318
1.68964
1.70725
1.72592
1.74556
1.76608
1.78742
1.80947
1.83212
1.85528
1.87873
1.90247
3.45786
3.29723
3.14417
2.9989
2.86185
2.73317
2.61273
2.50046
2.39608
2.29956
2.21066
2.12916
2.05486
1.98743
1.92669
1.87252
1.82492
1.78386
1.74907
1.72013
1.69661
1.67805
1.66403
1.65412
1.64795
1.64515
1.64539
1.64835
1.65377
1.6614
1.67101
1.68242
1.69546
1.70998
1.72587
1.743
1.76128
1.78063
1.80096
1.82218
1.8442
1.8669
1.8902
1.91387
1.93793
3.65138
3.4831
3.32239
3.1695
3.02462
2.88813
2.76002
2.6403
2.52875
2.42524
2.32967
2.24169
2.16118
2.08787
2.02154
1.96195
1.9089
1.8624
1.82242
1.78878
1.76104
1.73871
1.72131
1.70841
1.69956
1.69439
1.69253
1.69364
1.69742
1.70361
1.71197
1.72228
1.73437
1.74807
1.76327
1.77982
1.79764
1.81662
1.83668
1.85771
1.87964
1.90234
1.92572
1.94956
1.97389
3.85769
3.68157
3.51299
3.3522
3.19943
3.05491
2.9188
2.79122
2.67207
2.56109
2.45826
2.36329
2.27605
2.19632
2.12391
2.05856
2.00001
1.94802
1.90251
1.86351
1.83091
1.80422
1.78295
1.76659
1.75468
1.74679
1.74251
1.74149
1.7434
1.74793
1.75483
1.76387
1.77486
1.78761
1.80199
1.81786
1.83511
1.85363
1.87333
1.89411
1.91587
1.93851
1.96191
1.98587
2.01042
4.07742
3.89331
3.71668
3.54776
3.38694
3.23433
3.0901
2.95421
2.8269
2.70798
2.5974
2.49493
2.40042
2.31371
2.23463
2.16298
2.09848
2.04088
1.98984
1.94523
1.90715
1.87543
1.84966
1.82931
1.81385
1.80282
1.79577
1.79229
1.79203
1.79465
1.79988
1.80745
1.81715
1.82879
1.84221
1.85726
1.87382
1.89178
1.91103
1.93147
1.95299
1.97549
1.99885
2.02286
2.04757
4.31118
4.11895
3.93412
3.75702
3.58798
3.42704
3.27444
3.13018
2.99427
2.86692
2.74812
2.63762
2.5353
2.44104
2.35471
2.27614
2.20509
2.14134
2.08451
2.03437
1.99065
1.95333
1.92235
1.89734
1.87777
1.86309
1.85282
1.84651
1.84374
1.84415
1.84743
1.8533
1.86151
1.87185
1.88414
1.89822
1.91396
1.93123
1.94992
1.96991
1.99111
2.01338
2.03662
2.06061
2.08543
4.55945
4.35921
4.16613
3.98073
3.80319
3.63372
3.47252
3.31968
3.17521
3.03896
2.91145
2.79243
2.68177
2.57939
2.4852
2.3991
2.32083
2.25028
2.18714
2.13111
2.08173
2.03873
2.00206
1.97166
1.94727
1.92833
1.91431
1.90469
1.89901
1.89686
1.89788
1.90176
1.90823
1.91705
1.92802
1.94096
1.95572
1.97215
1.99015
2.00959
2.03034
2.0523
2.07534
2.09922
2.12406
4.8228
4.61466
4.41333
4.21945
4.03331
3.85514
3.68514
3.52348
3.37019
3.22515
3.08851
2.96047
2.84095
2.72991
2.62726
2.53299
2.44692
2.36891
2.29878
2.23613
2.18063
2.13186
2.08948
2.05332
2.02339
1.99945
1.98103
1.96754