/*--------------------------------*- C++ -*----------------------------------*\
| =========                 |                                                 |
| \\      /  F ield         | OpenFOAM: The Open Source CFD Toolbox           |
|  \\    /   O peration     | Version:  2506                                  |
|   \\  /    A nd           | Website:  www.openfoam.com                      |
|    \\/     M anipulation  |                                                 |
\*---------------------------------------------------------------------------*/
FoamFile
{
    version     2.0;
    format      ascii;
    arch        "LSB;label=32;scalar=64";
    class       volVectorField;
    location    "0";
    object      U;
}
// * * * * * * * * * * * * * * * * * * * * * * * * * * * * * * * * * * * * * //

dimensions      [0 1 -1 0 0 0 0];

internalField   nonuniform List<vector> 
18163
(
(-0.0591612 0.0266202 0)
(-0.0578625 0.02632 0)
(-0.0565825 0.0260153 -5.40905e-18)
(-0.0553228 0.0257072 -5.43996e-18)
(-0.0540865 0.0253978 -6.67502e-22)
(-0.0528781 0.0250898 7.50348e-22)
(-0.0517038 0.0247867 -5.53638e-18)
(-0.0505713 0.0244931 -7.48776e-22)
(-0.0494891 0.0242137 -6.83962e-22)
(-0.048467 0.0239542 5.63939e-18)
(-0.0475155 0.0237208 5.67749e-18)
(-0.0466464 0.0235204 0)
(-0.0458719 0.0233604 5.75146e-18)
(-0.0452049 0.0232486 -3.53441e-22)
(-0.044659 0.0231936 -5.82852e-18)
(-0.044248 0.0232041 5.86833e-18)
(-0.0439859 0.0232891 3.60627e-22)
(-0.0438866 0.0234579 -3.63187e-22)
(-0.0439636 0.0237198 5.99202e-18)
(-0.0442299 0.0240838 0)
(-0.0446971 0.0245587 6.07776e-18)
(-0.0453758 0.0251526 3.7366e-22)
(-0.0462749 0.0258729 6.16535e-18)
(-0.0474013 0.0267259 3.79095e-22)
(-0.0487599 0.027717 6.25501e-18)
(-0.0503532 0.0288501 -6.30025e-18)
(-0.0521808 0.0301275 -1.26926e-17)
(-0.0542395 0.0315496 -6.3916e-18)
(-0.0565226 0.0331151 -3.92899e-22)
(-0.0590195 0.0348196 7.91271e-22)
(-0.0617153 0.0366563 -3.98386e-22)
(-0.0645895 0.0386146 0)
(-0.0676151 0.0406794 0)
(-0.0707562 0.04283 0)
(-0.0739652 0.0450376 1.3399e-17)
(-0.0771779 0.0472623 6.73977e-18)
(-0.0803055 0.0494482 0)
(-0.0832206 0.0515136 0)
(-0.0857362 0.0533384 0)
(-0.0875786 0.0547443 -1.04913e-22)
(-0.0882407 0.055409 2.70967e-22)
(-0.0871602 0.0549637 -3.47216e-18)
(-0.0832181 0.0526593 -2.23711e-22)
(-0.0727306 0.0463582 7.00008e-18)
(-0.064593 0.0409113 -3.52197e-18)
(-0.0152206 0.00992278 7.04814e-18)
(-0.174796 0.0793839 -9.95709e-22)
(-0.171122 0.0785312 -8.19593e-18)
(-0.167497 0.0776638 8.24224e-18)
(-0.163926 0.0767862 8.28865e-18)
(-0.160422 0.0759051 1.01707e-21)
(-0.157001 0.0750293 -8.38756e-18)
(-0.153683 0.0741701 -1.02941e-21)
(-0.150491 0.073341 1.69794e-17)
(-0.147453 0.0725572 8.5422e-18)
(-0.144598 0.0718356 1.80833e-22)
(-0.141958 0.0711951 -8.65115e-18)
(-0.139566 0.0706561 -1.06262e-21)
(-0.137458 0.0702407 5.54148e-25)
(-0.135673 0.0699722 1.0773e-21)
(-0.134248 0.0698757 8.88263e-18)
(-0.133223 0.0699768 -1.78864e-17)
(-0.132637 0.0703021 -5.4957e-22)
(-0.13253 0.0708788 5.53431e-22)
(-0.13294 0.0717339 0)
(-0.133903 0.0728935 9.19368e-18)
(-0.135449 0.0743828 0)
(-0.137607 0.0762249 0)
(-0.140401 0.0784407 9.38835e-18)
(-0.143846 0.0810479 9.45553e-18)
(-0.147954 0.0840607 0)
(-0.152726 0.087489 9.58773e-18)
(-0.158157 0.0913377 9.6541e-18)
(-0.164231 0.0956063 -5.93317e-22)
(-0.170923 0.100288 5.97245e-22)
(-0.178194 0.105367 -9.85168e-18)
(-0.185995 0.11082 -9.91483e-18)
(-0.194256 0.116612 0)
(-0.202891 0.122695 0)
(-0.211785 0.129004 0)
(-0.220792 0.135448 2.07414e-22)
(-0.229714 0.141905 1.0217e-17)
(-0.238288 0.148203 0)
(-0.24614 0.154097 0)
(-0.252734 0.159227 -5.18719e-18)
(-0.257292 0.163063 0)
(-0.258461 0.164679 -5.23432e-18)
(-0.254661 0.162983 -5.25646e-18)
(-0.242804 0.15575 5.27682e-18)
(-0.214692 0.137656 -5.2994e-18)
(-0.187733 0.119535 5.33869e-18)
(-0.0630212 0.0335158 -5.34464e-18)
(-0.289403 0.131355 8.31858e-18)
(-0.283545 0.130042 -3.03767e-22)
(-0.277755 0.128701 -7.35677e-22)
(-0.272048 0.127343 1.31069e-21)
(-0.266449 0.12598 8.51143e-18)
(-0.260985 0.124628 1.0446e-21)
(-0.255694 0.123307 -8.61566e-18)
(-0.250615 0.122041 -8.66765e-18)
(-0.245796 0.120855 -8.72202e-18)
(-0.241286 0.119779 -8.77751e-18)
(-0.237137 0.118844 0)
(-0.233405 0.118083 0)
(-0.230149 0.117534 8.94955e-18)
(-0.22743 0.117234 1.10016e-21)
(-0.225311 0.117225 -1.10716e-21)
(-0.223855 0.117548 9.13402e-18)
(-0.223125 0.118246 0)
(-0.223185 0.119364 0)
(-0.224093 0.120943 0)
(-0.225906 0.123026 -9.38565e-18)
(-0.228674 0.125652 0)
(-0.232438 0.128858 0)
(-0.237233 0.132674 -9.58086e-18)
(-0.243082 0.137129 -9.64502e-18)
(-0.249997 0.14224 0)
(-0.257976 0.148022 -9.77545e-18)
(-0.267003 0.154478 -6.00581e-22)
(-0.277047 0.161601 6.04621e-22)
(-0.288057 0.169375 -6.08426e-22)
(-0.299964 0.17777 2.00635e-17)
(-0.312675 0.186739 1.00952e-17)
(-0.326068 0.196218 1.01534e-17)
(-0.339991 0.20612 1.24675e-21)
(-0.354246 0.216327 1.02706e-17)
(-0.368583 0.226683 -2.06543e-17)
(-0.38267 0.236975 -1.03812e-17)
(-0.396067 0.246913 1.04337e-17)
(-0.408165 0.256083 3.19673e-22)
(-0.4181 0.263891 5.26575e-18)
(-0.42463 0.26946 3.23265e-22)
(-0.425685 0.271332 1.61993e-22)
(-0.418773 0.267722 1.06695e-17)
(-0.399114 0.255046 5.04494e-25)
(-0.355881 0.226309 5.37628e-18)
(-0.308849 0.19272 -5.41217e-18)
(-0.126521 0.0636645 5.41245e-18)
(-0.402701 0.182519 3.16811e-22)
(-0.39487 0.18084 7.40536e-22)
(-0.387117 0.179118 -8.58035e-18)
(-0.379469 0.177371 -8.63068e-18)
(-0.371964 0.175617 1.32043e-21)
(-0.364645 0.173883 -1.06693e-21)
(-0.357568 0.172197 8.7895e-18)
(-0.350792 0.170593 -1.08008e-21)
(-0.344382 0.16911 8.89827e-18)
(-0.33841 0.167788 -1.09376e-21)
(-0.332948 0.166672 0)
(-0.328075 0.165808 -9.07352e-18)
(-0.323871 0.165248 -9.13467e-18)
(-0.32042 0.165045 1.12268e-21)
(-0.317807 0.165253 9.25693e-18)
(-0.316117 0.16593 -9.31879e-18)
(-0.315436 0.167135 -9.3843e-18)
(-0.315847 0.168926 0)
(-0.31743 0.171361 9.50994e-18)
(-0.320258 0.174496 -5.84289e-22)
(-0.324396 0.178381 0)
(-0.329896 0.183065 0)
(-0.336801 0.188586 5.96083e-22)
(-0.345137 0.194978 -5.99861e-22)
(-0.354911 0.202263 -9.89272e-18)
(-0.366116 0.210452 9.95663e-18)
(-0.378721 0.219544 -6.11417e-22)
(-0.39267 0.229525 0)
(-0.407887 0.240361 1.01412e-17)
(-0.424261 0.252003 -1.02004e-17)
(-0.441653 0.264377 1.02589e-17)
(-0.459883 0.277384 -1.03173e-17)
(-0.478727 0.290891 1.03729e-17)
(-0.497901 0.304724 -1.04261e-17)
(-0.517044 0.318654 1.04782e-17)
(-0.535691 0.332374 -1.05291e-17)
(-0.55323 0.345468 -1.05778e-17)
(-0.568825 0.357358 0)
(-0.581315 0.367218 3.25421e-22)
(-0.589041 0.373845 -6.54465e-22)
(-0.589357 0.375316 3.29149e-22)
(-0.578979 0.369191 -5.40222e-18)
(-0.551828 0.350754 -5.41808e-18)
(-0.49571 0.312226 7.33181e-22)
(-0.428666 0.261533 0)
(-0.205376 0.100559 -5.45408e-18)
(-0.514362 0.232808 -1.72717e-17)
(-0.504796 0.230862 -3.06995e-22)
(-0.495306 0.228858 0)
(-0.485934 0.226818 0)
(-0.476733 0.224771 -8.84194e-18)
(-0.467768 0.222752 -1.08682e-21)
(-0.45911 0.220801 0)
(-0.450842 0.218965 0)
(-0.44305 0.217293 -9.06738e-18)
(-0.435825 0.215838 0)
(-0.429262 0.214658 0)
(-0.423461 0.213813 9.24642e-18)
(-0.418524 0.213368 0)
(-0.414554 0.21339 1.14365e-21)
(-0.411659 0.213948 -9.43505e-18)
(-0.409944 0.215114 -5.26513e-23)
(-0.409513 0.216959 1.91212e-17)
(-0.410469 0.219557 -9.62246e-18)
(-0.412909 0.222979 -1.93713e-17)
(-0.41692 0.22729 -1.19004e-21)
(-0.422577 0.232555 0)
(-0.429943 0.238826 0)
(-0.439061 0.24615 0)
(-0.449957 0.254561 -9.997e-18)
(-0.462633 0.264083 1.00578e-17)
(-0.477065 0.27472 0)
(-0.493203 0.286465 -6.21185e-22)
(-0.510967 0.299287 6.24589e-22)
(-0.530242 0.313135 -1.02907e-17)
(-0.550875 0.327933 0)
(-0.572674 0.343575 -1.03986e-17)
(-0.595396 0.359922 -1.04523e-17)
(-0.618737 0.376791 -2.10016e-17)
(-0.642325 0.393945 6.43692e-22)
(-0.665688 0.411078 -6.46932e-22)
(-0.688227 0.427786 1.06409e-17)
(-0.709163 0.443529 6.52144e-22)
(-0.727454 0.457563 -6.54815e-22)
(-0.741672 0.468848 5.3876e-18)
(-0.749812 0.47588 -5.41141e-18)
(-0.748782 0.476344 1.65603e-22)
(-0.73468 0.467223 -1.66327e-22)
(-0.700563 0.442961 5.44939e-18)
(-0.633614 0.395311 -1.09161e-17)
(-0.548184 0.327617 5.47307e-18)
(-0.299103 0.144559 0)
(-0.623934 0.282034 8.75774e-18)
(-0.61291 0.279938 8.81187e-18)
(-0.601943 0.277761 8.86709e-18)
(-0.591094 0.275537 0)
(-0.580437 0.273304 0)
(-0.570056 0.271109 0)
(-0.560047 0.269004 0)
(-0.550513 0.267048 -1.11689e-21)
(-0.541563 0.265302 -9.21627e-18)
(-0.533311 0.263834 -9.27363e-18)
(-0.525874 0.262714 0)
(-0.519372 0.262016 -1.14695e-21)
(-0.513926 0.261817 9.46282e-18)
(-0.509663 0.262197 0)
(-0.506705 0.26324 0)
(-0.505178 0.26503 1.9309e-17)
(-0.505203 0.267651 -9.71629e-18)
(-0.506899 0.271189 6.29056e-25)
(-0.510375 0.275726 1.96773e-17)
(-0.515731 0.281337 9.89708e-18)
(-0.52305 0.288092 -1.21565e-21)
(-0.532396 0.296051 1.83412e-21)
(-0.543813 0.305263 -6.14869e-22)
(-0.557321 0.315762 1.01318e-17)
(-0.572908 0.327564 0)
(-0.590534 0.340669 0)
(-0.610122 0.355053 0)
(-0.63156 0.370668 0)
(-0.65469 0.387439 1.03939e-17)
(-0.679313 0.405259 1.27462e-21)
(-0.705175 0.423986 -1.04877e-17)
(-0.731966 0.443433 6.5734e-22)
(-0.759301 0.463363 2.11419e-17)
(-0.786714 0.483475 6.47403e-22)
(-0.813624 0.503381 -4.59167e-25)
(-0.839303 0.522578 -6.52287e-22)
(-0.862818 0.540404 -3.2684e-22)
(-0.882943 0.555963 -5.37555e-18)
(-0.898028 0.568018 -5.39352e-18)
(-0.905798 0.574809 5.41362e-18)
(-0.902863 0.573705 0)
(-0.884912 0.561234 5.42629e-18)
(-0.844578 0.531308 0)
(-0.768868 0.475251 5.41055e-18)
(-0.668361 0.392314 -5.40617e-18)
(-0.406722 0.195735 5.38364e-18)
(-0.730683 0.329874 8.81586e-18)
(-0.718536 0.327764 0)
(-0.706405 0.325546 3.0192e-22)
(-0.694373 0.323265 0)
(-0.682539 0.320971 9.06403e-18)
(-0.671012 0.318723 -9.12748e-18)
(-0.659911 0.316587 -9.18901e-18)
(-0.649366 0.314635 9.25425e-18)
(-0.639509 0.312942 9.31625e-18)
(-0.630476 0.311589 9.37764e-18)
(-0.622407 0.31066 1.15314e-21)
(-0.615443 0.310241 -9.50608e-18)
(-0.609725 0.310423 -1.0522e-21)
(-0.605397 0.311299 -9.63655e-18)
(-0.6026 0.312963 1.18407e-21)
(-0.601474 0.315511 -9.76681e-18)
(-0.602155 0.31904 9.82471e-18)
(-0.604776 0.323645 9.88278e-18)
(-0.609456 0.329415 -9.93984e-18)
(-0.616301 0.336435 -9.9957e-18)
(-0.625397 0.344779 0)
(-0.636808 0.354507 0)
(-0.650573 0.365669 1.01548e-17)
(-0.666697 0.378292 -6.22713e-22)
(-0.685154 0.392386 1.02507e-17)
(-0.705877 0.407935 0)
(-0.728761 0.424899 0)
(-0.75365 0.443205 -1.03776e-17)
(-0.780344 0.46275 -2.08318e-17)
(-0.808587 0.483392 1.04501e-17)
(-0.838062 0.504944 7.56339e-23)
(-0.868384 0.527171 1.05106e-17)
(-0.899089 0.549778 -1.05371e-17)
(-0.929615 0.572393 3.19175e-25)
(-0.959277 0.594549 6.45926e-22)
(-0.987225 0.615647 1.05977e-17)
(-1.01239 0.634912 1.06138e-17)
(-1.03341 0.651308 5.31422e-18)
(-1.04844 0.663434 -3.24528e-22)
(-1.05506 0.669329 6.97484e-25)
(-1.0497 0.666137 5.33178e-18)
(-1.02791 0.650084 -5.30695e-18)
(-0.9823 0.614848 -1.61277e-22)
(-0.900097 0.551346 0)
(-0.789226 0.456247 -5.22347e-18)
(-0.526084 0.253412 -5.20832e-18)
(-0.833418 0.375802 -1.75263e-17)
(-0.820572 0.373849 0)
(-0.807668 0.371752 -8.91106e-18)
(-0.794819 0.369568 8.98284e-18)
(-0.78215 0.367361 1.37738e-21)
(-0.769799 0.365205 9.1272e-18)
(-0.757914 0.363179 -1.36057e-21)
(-0.74665 0.361371 -9.2655e-18)
(-0.736166 0.35987 -9.3367e-18)
(-0.726624 0.35877 1.14839e-21)
(-0.718186 0.358169 -1.15574e-21)
(-0.711013 0.358168 2.19357e-21)
(-0.705267 0.358867 -9.60642e-18)
(-0.701106 0.360372 9.67081e-18)
(-0.698689 0.362789 0)
(-0.698167 0.366223 9.79573e-18)
(-0.69969 0.37078 5.28156e-24)
(-0.703398 0.376562 0)
(-0.709418 0.383667 9.95465e-18)
(-0.717858 0.392181 1.22115e-21)
(-0.728801 0.40218 1.20721e-25)
(-0.742307 0.413723 1.00927e-17)
(-0.7584 0.426853 -1.37942e-22)
(-0.777072 0.44159 -1.24141e-21)
(-0.798269 0.457928 -1.02054e-17)
(-0.821897 0.475836 1.02359e-17)
(-0.84781 0.495248 0)
(-0.87581 0.516063 1.02856e-17)
(-0.905644 0.538144 1.03049e-17)
(-0.936995 0.561308 -1.03201e-17)
(-0.96948 0.585322 2.06623e-17)
(-1.00264 0.609899 -6.30908e-22)
(-1.03593 0.634683 1.03412e-17)
(-1.0687 0.659232 -1.03388e-17)
(-1.10016 0.683001 0)
(-1.12936 0.705306 2.69252e-22)
(-1.15514 0.725268 -1.0308e-17)
(-1.176 0.741741 0)
(-1.19002 0.753195 -5.13602e-18)
(-1.19469 0.757541 0)
(-1.18647 0.751795 -1.01985e-17)
(-1.16098 0.732058 5.04746e-18)
(-1.11118 0.692043 0)
(-1.02497 0.622388 0)
(-0.909188 0.518975 4.89107e-18)
(-0.653346 0.31584 -3.75813e-23)
(-0.930388 0.419051 8.5406e-18)
(-0.917379 0.417467 0)
(-0.904197 0.415689 8.72963e-18)
(-0.890986 0.41379 -8.81898e-18)
(-0.877904 0.411848 -8.9058e-18)
(-0.865121 0.409953 -8.99244e-18)
(-0.852817 0.408202 9.0728e-18)
(-0.841178 0.406695 0)
(-0.83039 0.405537 9.22915e-18)
(-0.820642 0.404839 -1.1353e-21)
(-0.812119 0.404711 1.14505e-21)
(-0.805004 0.405265 9.44816e-18)
(-0.799476 0.406615 -1.16188e-21)
(-0.795712 0.408878 0)
(-0.793881 0.412167 -1.17724e-21)
(-0.794144 0.416596 -9.70012e-18)
(-0.796663 0.422278 -9.7518e-18)
(-0.801582 0.429323 9.7964e-18)
(-0.809029 0.437829 -1.96771e-17)
(-0.819108 0.447883 9.87923e-18)
(-0.831899 0.459557 -2.41974e-21)
(-0.847446 0.472907 -9.93997e-18)
(-0.865757 0.487963 -9.96553e-18)
(-0.886799 0.504732 -1.21907e-21)
(-0.910491 0.523191 -1.22129e-21)
(-0.936699 0.543283 -2.00282e-17)
(-0.965235 0.564915 -1.00211e-17)
(-0.995853 0.587954 6.11582e-22)
(-1.02824 0.612222 -1.00161e-17)
(-1.06202 0.637493 -1.00054e-17)
(-1.09674 0.663487 -9.98975e-18)
(-1.13188 0.689861 9.96721e-18)
(-1.1668 0.716198 -2.43613e-23)
(-1.20078 0.741996 9.90298e-18)
(-1.23295 0.766638 0)
(-1.26229 0.789363 -9.81298e-18)
(-1.28755 0.809217 0)
(-1.30718 0.824973 0)
(-1.31926 0.835027 9.62976e-18)
(-1.32129 0.837231 -5.83386e-22)
(-1.3099 0.828587 9.43956e-18)
(-1.28104 0.805237 -4.63708e-18)
(-1.22829 0.761157 0)
(-1.14064 0.686924 -6.82264e-23)
(-1.02528 0.579147 -4.43296e-18)
(-0.783282 0.380412 0)
(-1.01939 0.458658 9.9069e-22)
(-1.00685 0.457687 1.00413e-21)
(-0.993983 0.45646 -1.6703e-17)
(-0.980957 0.455063 -8.46238e-18)
(-0.967967 0.453593 8.57105e-18)
(-0.955219 0.452155 8.67352e-18)
(-0.942927 0.45086 0)
(-0.931307 0.449828 -8.8649e-18)
(-0.920579 0.449179 0)
(-0.910958 0.449037 -1.1028e-21)
(-0.902654 0.449526 9.11859e-18)
(-0.895873 0.450771 -1.12185e-21)
(-0.890811 0.452898 1.1312e-21)
(-0.887659 0.45603 0)
(-0.886597 0.460291 9.39465e-18)
(-0.887795 0.465799 9.44239e-18)
(-0.89142 0.472674 -2.3157e-21)
(-0.897618 0.481027 -9.5209e-18)
(-0.906513 0.490955 9.55245e-18)
(-0.918203 0.502542 -9.57711e-18)
(-0.932753 0.515854 1.09699e-25)
(-0.95019 0.530935 -1.17343e-21)
(-0.970499 0.547801 9.6221e-18)
(-0.993618 0.56644 -2.34923e-21)
(-1.01943 0.586806 1.17385e-21)
(-1.04776 0.608814 9.60544e-18)
(-1.07837 0.632339 9.58673e-18)
(-1.11097 0.657212 0)
(-1.14518 0.683213 9.52752e-18)
(-1.18057 0.710073 9.48841e-18)
(-1.21663 0.737462 9.43982e-18)
(-1.25275 0.764987 -1.87684e-17)
(-1.28826 0.792178 -9.321e-18)
(-1.32236 0.818477 5.64567e-22)
(-1.35412 0.843211 9.16703e-18)
(-1.38249 0.865567 9.07676e-18)
(-1.40619 0.884541 -5.47555e-22)
(-1.42368 0.898867 5.41603e-22)
(-1.43308 0.906923 -4.37515e-18)
(-1.43205 0.906581 2.63e-22)
(-1.4175 0.894928 -8.45022e-18)
(-1.38588 0.86828 2.51832e-22)
(-1.33157 0.821041 -4.0193e-18)
(-1.24489 0.74393 1.80233e-22)
(-1.13445 0.635265 3.90774e-18)
(-0.910628 0.444441 3.07678e-23)
(-1.09819 0.493662 7.46422e-18)
(-1.08681 0.49355 7.61731e-18)
(-1.07488 0.493111 7.76187e-18)
(-1.06263 0.492444 1.58038e-17)
(-1.05029 0.491661 -8.03261e-18)
(-1.03809 0.490883 -8.157e-18)
(-1.02628 0.490238 0)
(-1.01511 0.48986 8.38377e-18)
(-1.00483 0.489886 -8.4868e-18)
(-0.995688 0.490453 -8.5826e-18)
(-0.987917 0.491698 -8.67023e-18)
(-0.981744 0.493759 -1.06888e-21)
(-0.977383 0.496771 8.82846e-18)
(-0.975038 0.500865 -1.08582e-21)
(-0.974898 0.506169 1.75839e-23)
(-0.977138 0.512808 -9.0001e-18)
(-0.981932 0.520905 1.10319e-21)
(-0.98942 0.530568 1.10653e-21)
(-0.999719 0.541892 -3.72803e-26)
(-1.01291 0.554952 9.09929e-18)
(-1.02905 0.569803 -1.11141e-21)
(-1.04814 0.586474 0)
(-1.07013 0.604965 -9.09277e-18)
(-1.09493 0.62524 0)
(-1.12239 0.647226 9.04812e-18)
(-1.15228 0.670808 0)
(-1.18433 0.695827 0)
(-1.21819 0.722076 0)
(-1.25343 0.749296 5.40759e-22)
(-1.28956 0.777175 -8.79095e-18)
(-1.32602 0.80534 -1.74247e-17)
(-1.36217 0.833356 1.72504e-17)
(-1.39727 0.86071 5.20451e-22)
(-1.43049 0.886803 -5.14129e-22)
(-1.46089 0.910929 -8.30541e-18)
(-1.4874 0.932247 -8.17686e-18)
(-1.50877 0.949738 0)
(-1.52353 0.962142 0)
(-1.52992 0.967869 0)
(-1.52584 0.964878 -2.30897e-22)
(-1.50855 0.950412 -3.15913e-22)
(-1.47508 0.921032 3.57042e-18)
(-1.42068 0.871669 3.46836e-18)
(-1.33706 0.793312 -2.07251e-22)
(-1.23479 0.686441 1.03557e-22)
(-1.03143 0.505902 0)
(-1.16524 0.523402 -6.66433e-18)
(-1.15558 0.524346 -1.43911e-21)
(-1.14518 0.524893 8.56346e-22)
(-1.13426 0.525153 -7.17106e-18)
(-1.12308 0.525249 -7.32198e-18)
(-1.11192 0.525316 1.49337e-17)
(-1.10105 0.525495 0)
(-1.09075 0.525935 -9.4297e-22)
(-1.08131 0.526785 7.84385e-18)
(-1.07299 0.528197 8.4395e-22)
(-1.06605 0.53032 0)
(-1.06074 0.5333 -9.93566e-22)
(-1.05729 0.537282 2.06238e-21)
(-1.05592 0.542402 -1.01253e-21)
(-1.05681 0.548792 -8.34915e-18)
(-1.06017 0.556582 0)
(-1.06615 0.565895 0)
(-1.07489 0.576832 0)
(-1.08649 0.589483 -8.45662e-18)
(-1.10104 0.603911 -8.46221e-18)
(-1.11854 0.620158 -8.45498e-18)
(-1.13898 0.638236 0)
(-1.16229 0.658123 1.0273e-21)
(-1.18834 0.679757 -1.02291e-21)
(-1.21694 0.703039 -8.33793e-18)
(-1.24782 0.727823 -2.23159e-25)
(-1.28066 0.753915 1.0034e-21)
(-1.31507 0.781074 8.14826e-18)
(-1.35058 0.809006 4.92354e-22)
(-1.38667 0.837362 1.59485e-17)
(-1.42272 0.865738 1.57455e-17)
(-1.45807 0.893664 -7.76109e-18)
(-1.49197 0.920602 0)
(-1.52357 0.945933 4.58061e-22)
(-1.55196 0.968939 -2.89924e-25)
(-1.57608 0.988779 -8.803e-22)
(-1.59477 1.00445 -7.04941e-18)
(-1.60666 1.01473 0)
(-1.61018 1.01811 -3.35162e-18)
(-1.60347 1.01267 -3.99936e-25)
(-1.5842 0.995845 3.1549e-18)
(-1.54995 0.964457 -3.0507e-18)
(-1.49684 0.913998 -2.96258e-18)
(-1.41785 0.835789 -2.90646e-18)
(-1.32574 0.732546 2.93518e-18)
(-1.14343 0.563622 -3.10858e-18)
(-1.2201 0.547729 5.80481e-18)
(-1.21258 0.549838 -1.19826e-17)
(-1.2041 0.551491 6.17037e-18)
(-1.19493 0.552806 6.34704e-18)
(-1.18533 0.553914 -1.78922e-22)
(-1.17561 0.554958 -6.66817e-18)
(-1.16606 0.556091 -8.32729e-22)
(-1.15699 0.557472 0)
(-1.1487 0.559262 0)
(-1.14149 0.561621 7.2028e-18)
(-1.13563 0.56471 8.92806e-22)
(-1.1314 0.568682 0)
(-1.12903 0.573688 -7.49231e-18)
(-1.12876 0.579869 0)
(-1.13078 0.587359 7.62139e-18)
(-1.13528 0.596291 -9.3533e-22)
(-1.14243 0.606783 -7.69168e-18)
(-1.15235 0.618931 7.71093e-18)
(-1.16514 0.632812 7.7221e-18)
(-1.18085 0.64848 0)
(-1.19947 0.665959 7.70512e-18)
(-1.22097 0.685242 0)
(-1.24525 0.706283 -7.64628e-18)
(-1.27213 0.728998 -7.6012e-18)
(-1.30139 0.753258 -7.54662e-18)
(-1.33273 0.778889 -7.47983e-18)
(-1.3658 0.805668 1.80756e-21)
(-1.40017 0.833322 -1.46365e-17)
(-1.43534 0.86153 1.76286e-21)
(-1.47076 0.889918 -7.11501e-18)
(-1.50581 0.918056 -1.3995e-17)
(-1.5398 0.945461 4.19366e-22)
(-1.57199 0.971583 0)
(-1.60157 0.995801 0)
(-1.62766 1.01741 3.92525e-22)
(-1.64926 1.03558 -3.82853e-22)
(-1.66531 1.04936 -2.46822e-22)
(-1.67458 1.05759 0)
(-1.67568 1.05884 2.8742e-18)
(-1.66704 1.05135 0)
(-1.64669 1.03275 0)
(-1.61269 1.00008 1.5843e-22)
(-1.56199 0.949426 5.059e-18)
(-1.48868 0.872439 -6.78439e-22)
(-1.40764 0.77392 -2.5453e-18)
(-1.2457 0.617075 2.73054e-18)
(-1.26353 0.567008 -4.97099e-18)
(-1.2583 0.570292 5.15511e-18)
(-1.25196 0.573082 -1.06724e-17)
(-1.24477 0.575497 -5.51359e-18)
(-1.237 0.577672 5.68176e-18)
(-1.22898 0.579756 5.84438e-18)
(-1.221 0.58191 5.99875e-18)
(-1.2134 0.584298 6.14475e-18)
(-1.20649 0.587091 6.27998e-18)
(-1.2006 0.590455 -6.40439e-18)
(-1.19601 0.594556 7.95794e-22)
(-1.193 0.599556 -6.6178e-18)
(-1.19184 0.605607 0)
(-1.19274 0.612853 -8.27819e-22)
(-1.19592 0.62143 -1.36782e-17)
(-1.20158 0.631472 -6.88279e-18)
(-1.20986 0.643087 1.38292e-17)
(-1.22088 0.656363 -1.38666e-17)
(-1.23471 0.671367 0)
(-1.2514 0.688138 0)
(-1.27093 0.706683 0)
(-1.29321 0.726975 0)
(-1.31813 0.748946 1.37042e-17)
(-1.34548 0.772489 6.79969e-18)
(-1.37501 0.797448 6.74072e-18)
(-1.40641 0.823625 6.66759e-18)
(-1.43927 0.850771 -6.58356e-18)
(-1.47316 0.878592 6.48968e-18)
(-1.50756 0.906747 -6.38667e-18)
(-1.54191 0.934844 0)
(-1.57559 0.962446 1.23021e-17)
(-1.60794 0.989063 3.674e-22)
(-1.63822 1.01415 -5.87865e-18)
(-1.66568 1.0371 0)
(-1.68948 1.05723 0)
(-1.70873 1.07376 5.41401e-18)
(-1.72246 1.08577 5.24855e-18)
(-1.72958 1.09218 -2.54142e-18)
(-1.7289 1.09167 3.00459e-22)
(-1.71908 1.0826 0)
(-1.69848 1.06278 0)
(-1.6656 1.02949 -2.22446e-18)
(-1.61813 0.979339 -2.17374e-18)
(-1.55103 0.904328 2.15905e-18)
(-1.4812 0.811059 6.78548e-23)
(-1.33815 0.666118 2.40821e-18)
(-1.297 0.581924 4.22611e-18)
(-1.29406 0.586322 0)
(-1.28989 0.590205 -1.32883e-22)
(-1.28474 0.593692 -4.73901e-18)
(-1.27889 0.596921 2.39355e-21)
(-1.27267 0.600044 -1.11928e-21)
(-1.26638 0.603223 -5.21322e-18)
(-1.26038 0.606629 9.53541e-23)
(-1.25498 0.610434 -5.49515e-18)
(-1.25051 0.614812 -6.28169e-23)
(-1.24728 0.619931 -5.73455e-18)
(-1.24558 0.625956 5.83996e-18)
(-1.24567 0.633039 -7.23986e-22)
(-1.24778 0.641327 0)
(-1.25213 0.650956 6.06382e-18)
(-1.25891 0.662054 6.11015e-18)
(-1.26826 0.674721 -6.14361e-18)
(-1.28028 0.689035 6.16427e-18)
(-1.29504 0.705051 6.17217e-18)
(-1.31255 0.722793 -6.16785e-18)
(-1.33277 0.74225 -7.50956e-22)
(-1.35561 0.763376 7.47414e-22)
(-1.38091 0.786082 -6.08319e-18)
(-1.40846 0.81024 6.03138e-18)
(-1.43798 0.835672 0)
(-1.46912 0.862159 -5.89493e-18)
(-1.50149 0.889435 2.80484e-22)
(-1.53462 0.91719 0)
(-1.568 0.945069 5.61306e-18)
(-1.60108 0.972678 -6.71223e-22)
(-1.63325 0.999578 -5.37786e-18)
(-1.66388 1.02529 5.24801e-18)
(-1.69227 1.04927 5.1109e-18)
(-1.71772 1.07095 0)
(-1.73947 1.08968 0)
(-1.75671 1.1047 -4.67029e-18)
(-1.76856 1.11517 -2.75951e-22)
(-1.77409 1.12008 2.18459e-18)
(-1.77226 1.11819 0)
(-1.76194 1.10797 2.04506e-18)
(-1.7418 1.08744 0)
(-1.71067 1.05403 1.92011e-18)
(-1.66695 1.0049 0)
(-1.60621 0.932348 -1.88747e-18)
(-1.54717 0.844447 1.96033e-18)
(-1.42118 0.710823 -2.13317e-18)
(-1.32224 0.593263 -3.59219e-18)
(-1.32147 0.598674 -1.83018e-21)
(-1.31938 0.603563 -1.06779e-22)
(-1.31622 0.608051 8.11814e-18)
(-1.31227 0.612273 4.20975e-18)
(-1.30784 0.616383 -8.72029e-18)
(-1.30326 0.620546 1.09925e-21)
(-1.29887 0.624934 -9.28875e-18)
(-1.295 0.629721 4.7753e-18)
(-1.29198 0.635083 4.89805e-18)
(-1.29014 0.641189 5.01109e-18)
(-1.28975 0.648204 1.24803e-21)
(-1.29109 0.656281 -5.20571e-18)
(-1.29439 0.665564 5.27888e-18)
(-1.29988 0.676189 0)
(-1.30773 0.688276 0)
(-1.31807 0.701915 0)
(-1.33099 0.717174 6.6481e-22)
(-1.34654 0.734093 -5.45651e-18)
(-1.36473 0.752682 5.45348e-18)
(-1.38548 0.772914 -5.43932e-18)
(-1.40869 0.794724 6.60794e-22)
(-1.43419 0.818005 -6.56015e-22)
(-1.46173 0.842609 -5.32482e-18)
(-1.49103 0.868342 5.26433e-18)
(-1.52173 0.894968 5.19118e-18)
(-1.55343 0.92221 5.11201e-18)
(-1.58566 0.949748 -6.12655e-22)
(-1.61792 0.977225 -6.00514e-22)
(-1.64968 1.00425 4.81181e-18)
(-1.68035 1.03038 4.69433e-18)
(-1.70934 1.05516 -9.14517e-18)
(-1.73601 1.07808 -8.13979e-22)
(-1.75969 1.09858 2.63334e-22)
(-1.77971 1.11604 0)
(-1.79533 1.12977 0)
(-1.80578 1.13896 3.91016e-18)
(-1.81024 1.14267 1.88958e-18)
(-1.80782 1.13974 -1.82836e-18)
(-1.79758 1.12877 -1.7719e-18)
(-1.77842 1.10792 1.04685e-22)
(-1.74947 1.07478 -1.02395e-22)
(-1.70976 1.02701 0)
(-1.65528 0.95719 1.66611e-18)
(-1.60629 0.874507 -1.74089e-18)
(-1.49543 0.75139 1.90065e-18)
(-1.34086 0.601757 0)
(-1.3421 0.608068 -7.82172e-22)
(-1.34196 0.613862 3.34523e-18)
(-1.34067 0.619256 -3.48318e-18)
(-1.33852 0.624388 -3.62152e-18)
(-1.33581 0.62941 -7.63533e-23)
(-1.33288 0.634488 9.49702e-22)
(-1.33005 0.639794 -1.0408e-21)
(-1.32766 0.645505 -4.14535e-18)
(-1.32606 0.651794 4.26308e-18)
(-1.32556 0.658832 -1.0674e-21)
(-1.32645 0.666781 -1.09078e-21)
(-1.329 0.675793 4.55817e-18)
(-1.33344 0.686009 -4.62987e-18)
(-1.34 0.697563 -4.6911e-18)
(-1.34884 0.710562 4.74035e-18)
(-1.36008 0.725088 0)
(-1.3738 0.741197 -4.80111e-18)
(-1.39003 0.758917 -5.87661e-22)
(-1.40876 0.778241 -4.81372e-18)
(-1.42991 0.799129 4.80125e-18)
(-1.45335 0.821497 -7.0311e-26)
(-1.4789 0.845224 5.78887e-22)
(-1.5063 0.870144 -4.69547e-18)
(-1.53525 0.896052 -4.63981e-18)
(-1.5654 0.922701 -4.57178e-18)
(-1.59634 0.949804 4.49562e-18)
(-1.62763 0.977041 -1.07658e-21)
(-1.65877 1.00406 5.26835e-22)
(-1.68926 1.03046 -2.2007e-22)
(-1.71854 1.05584 -8.21757e-18)
(-1.74606 1.07974 3.99704e-18)
(-1.77123 1.10168 0)
(-1.79344 1.12113 -2.29617e-22)
(-1.81207 1.1375 2.22431e-22)
(-1.82647 1.15014 0)
(-1.83595 1.1583 -3.4079e-18)
(-1.83979 1.16109 -3.29731e-18)
(-1.83723 1.15743 1.59737e-18)
(-1.8275 1.14601 0)
(-1.80968 1.12513 1.50867e-18)
(-1.78319 1.09253 -2.00375e-25)
(-1.74757 1.04633 1.46836e-18)
(-1.69905 0.979375 4.53686e-23)
(-1.65923 0.901595 -1.55951e-18)
(-1.56165 0.788088 -3.40326e-18)
(-1.35422 0.608016 -6.46125e-22)
(-1.35731 0.615122 0)
(-1.35897 0.62172 -2.88511e-18)
(-1.35942 0.627925 7.34721e-22)
(-1.35894 0.633876 7.63827e-22)
(-1.35785 0.639725 3.25288e-18)
(-1.35645 0.645638 0)
(-1.3551 0.651788 -3.49292e-18)
(-1.35412 0.65835 -8.8133e-22)
(-1.35386 0.665497 -7.43457e-18)
(-1.35463 0.673397 -3.81765e-18)
(-1.35672 0.682212 0)
(-1.3604 0.692089 3.9949e-18)
(-1.36591 0.703168 0)
(-1.37345 0.715575 4.12493e-18)
(-1.38319 0.729406 1.93775e-21)
(-1.39523 0.744733 4.21113e-18)
(-1.40964 0.761602 4.23679e-18)
(-1.42644 0.780027 1.03801e-21)
(-1.4456 0.799989 -3.28657e-22)
(-1.46704 0.821429 5.18056e-22)
(-1.4906 0.844253 -5.15563e-22)
(-1.51609 0.868323 -8.11981e-26)
(-1.54326 0.893464 4.14976e-18)
(-1.5718 0.919458 0)
(-1.60136 0.946052 -2.34934e-22)
(-1.63153 0.972959 2.29754e-22)
(-1.6619 0.999857 0)
(-1.69198 1.0264 3.80095e-18)
(-1.7213 1.0522 -3.70917e-18)
(-1.74935 1.07687 1.82702e-22)
(-1.77559 1.09997 -4.28726e-22)
(-1.7995 1.12103 -3.40881e-18)
(-1.82053 1.13957 0)
(-1.83809 1.15502 0)
(-1.85162 1.16678 0)
(-1.8605 1.17412 -1.82829e-22)
(-1.8641 1.17623 1.45192e-18)
(-1.86175 1.17207 -1.40991e-18)
(-1.85284 1.16044 3.34997e-22)
(-1.83662 1.13975 -1.33923e-18)
(-1.8127 1.10788 -1.73386e-25)
(-1.78114 1.06338 3.56949e-22)
(-1.73821 0.999298 -1.33639e-18)
(-1.7066 0.92602 -5.99783e-22)
(-1.62062 0.821224 1.5314e-18)
(-1.3634 0.612525 2.29957e-18)
(-1.36819 0.620332 2.40226e-18)
(-1.3715 0.627641 5.55354e-22)
(-1.37355 0.634569 6.38427e-22)
(-1.37463 0.641252 -6.66028e-22)
(-1.37503 0.647846 6.91965e-22)
(-1.37507 0.654515 -7.19472e-22)
(-1.37509 0.661431 -7.44907e-22)
(-1.37542 0.668768 7.71154e-22)
(-1.3764 0.676699 3.2571e-18)
(-1.37835 0.68539 3.35147e-18)
(-1.38155 0.694998 0)
(-1.38627 0.705668 -8.98651e-22)
(-1.39275 0.717536 8.75127e-22)
(-1.40118 0.730717 0)
(-1.41172 0.7453 -3.68947e-18)
(-1.42446 0.761347 -3.72729e-18)
(-1.43946 0.778891 3.75302e-18)
(-1.45674 0.797935 -9.19644e-22)
(-1.47624 0.818445 3.77209e-18)
(-1.49786 0.840352 3.76239e-18)
(-1.52146 0.863547 4.57201e-22)
(-1.54683 0.887881 -3.71726e-18)
(-1.57371 0.91317 -3.67877e-18)
(-1.60181 0.93919 -4.43315e-22)
(-1.63076 0.965685 3.57656e-18)
(-1.6602 0.992365 -7.02463e-18)
(-1.68969 1.01891 -3.44104e-18)
(-1.71881 1.04499 -3.3642e-18)
(-1.7471 1.07023 0)
(-1.77407 1.09425 3.19574e-18)
(-1.79925 1.11664 -3.79175e-22)
(-1.82214 1.13695 6.0312e-18)
(-1.84224 1.15471 0)
(-1.85903 1.1694 -2.83299e-18)
(-1.87198 1.18044 0)
(-1.88055 1.18716 -2.66012e-18)
(-1.88418 1.18876 3.1512e-22)
(-1.88232 1.1843 1.25605e-18)
(-1.87444 1.17263 0)
(-1.85997 1.15229 -1.20108e-18)
(-1.83867 1.12128 -1.1868e-18)
(-1.81105 1.07851 4.00049e-22)
(-1.77327 1.01726 -3.75909e-22)
(-1.74895 0.948052 1.27563e-18)
(-1.67313 0.851117 0)
(-1.36923 0.615653 -4.47247e-22)
(-1.37558 0.624081 -2.10929e-18)
(-1.38041 0.632022 -1.12221e-21)
(-1.38395 0.639594 2.29738e-18)
(-1.38647 0.646934 2.39464e-18)
(-1.38825 0.654196 0)
(-1.38961 0.661546 0)
(-1.3909 0.669154 0)
(-1.39244 0.677194 0)
(-1.39457 0.685837 -7.01017e-22)
(-1.39759 0.695247 7.22792e-22)
(-1.40181 0.705577 0)
(-1.40748 0.716968 -6.22296e-18)
(-1.41483 0.729552 7.7509e-22)
(-1.42406 0.743435 3.22991e-18)
(-1.4353 0.758694 -3.27728e-18)
(-1.44865 0.775383 1.61739e-21)
(-1.46415 0.793525 -6.67669e-18)
(-1.4818 0.81311 8.18631e-22)
(-1.50155 0.834093 -8.19862e-22)
(-1.52329 0.856393 6.20507e-22)
(-1.54687 0.87989 -1.22226e-21)
(-1.57207 0.904427 6.62559e-18)
(-1.59863 0.929812 3.27939e-18)
(-1.62627 0.955818 0)
(-1.65464 0.982185 -3.18557e-18)
(-1.68338 1.00863 3.12879e-18)
(-1.71209 1.03484 3.06516e-18)
(-1.74035 1.06048 -2.9964e-18)
(-1.76773 1.08521 0)
(-1.7938 1.10865 3.47458e-22)
(-1.8181 1.13041 -2.79843e-26)
(-1.84018 1.15007 -4.28036e-22)
(-1.85958 1.16718 0)
(-1.87582 1.18125 2.52951e-18)
(-1.88844 1.19172 -2.45348e-18)
(-1.89694 1.19795 2.38177e-18)
(-1.90083 1.1992 -1.15834e-18)
(-1.89964 1.19458 -1.13011e-18)
(-1.89295 1.183 -1.10612e-18)
(-1.8803 1.16312 1.08657e-18)
(-1.86161 1.13304 1.07726e-18)
(-1.83774 1.09202 -2.16458e-18)
(-1.80468 1.0335 1.10536e-18)
(-1.78678 0.967935 3.55148e-23)
(-1.71988 0.878082 -1.26077e-18)
(-1.37231 0.617678 -1.7917e-18)
(-1.38012 0.62666 0)
(-1.38638 0.635167 1.95163e-18)
(-1.3913 0.643316 -2.03475e-18)
(-1.39515 0.651246 -4.24271e-18)
(-1.39821 0.659109 5.39354e-22)
(-1.40081 0.667073 0)
(-1.40327 0.675307 -2.38307e-18)
(-1.40592 0.683984 6.0291e-22)
(-1.40909 0.693273 2.55217e-18)
(-1.4131 0.703334 -6.42622e-22)
(-1.41824 0.714319 0)
(-1.42476 0.726366 2.77201e-18)
(-1.4329 0.739596 -2.83192e-18)
(-1.44282 0.75411 -2.88338e-18)
(-1.45468 0.769976 5.85357e-18)
(-1.46854 0.787237 -2.96105e-18)
(-1.48445 0.805906 1.41332e-22)
(-1.50241 0.825964 3.0005e-18)
(-1.52234 0.847354 1.46831e-21)
(-1.54413 0.869985 -3.00417e-18)
(-1.56763 0.893729 7.30132e-22)
(-1.59263 0.918422 -2.9695e-18)
(-1.61887 0.943865 -2.93843e-18)
(-1.64606 0.969829 0)
(-1.67388 0.996057 2.85539e-18)
(-1.70198 1.02227 3.42286e-22)
(-1.72997 1.04816 0)
(-1.75748 1.0734 2.68625e-18)