# y+ ()       
# Time        	patch         	min           	max           	average       
6000          	bottom	4.037741e-02	8.464090e-01	4.394634e-01
