# y+ ()       
# Time        	patch         	min           	max           	average       
6000          	bottom	4.038890e-02	8.464066e-01	4.394593e-01
