/*--------------------------------*- C++ -*----------------------------------*\
| =========                 |                                                 |
| \\      /  F ield         | OpenFOAM: The Open Source CFD Toolbox           |
|  \\    /   O peration     | Version:  2506                                  |
|   \\  /    A nd           | Website:  www.openfoam.com                      |
|    \\/     M anipulation  |                                                 |
\*---------------------------------------------------------------------------*/
FoamFile
{
    version     2.0;
    format      ascii;
    arch        "LSB;label=32;scalar=64";
    class       volScalarField;
    location    "0";
    object      k;
}
// * * * * * * * * * * * * * * * * * * * * * * * * * * * * * * * * * * * * * //

dimensions      [0 2 -2 0 0 0 0];

internalField   nonuniform List<scalar> 
17908
(
0.00199373
0.00203176
0.00206882
0.00210489
0.00213989
0.00217378
0.00220649
0.00223796
0.0022681
0.00229683
0.00232407
0.00234973
0.00237369
0.00239587
0.00241615
0.00243443
0.00245058
0.00246451
0.0024761
0.00248524
0.00249185
0.00249581
0.00249702
0.00249539
0.00249081
0.00248321
0.00247251
0.00245863
0.0024415
0.00242109
0.00239735
0.00237025
0.00233978
0.00230594
0.00226874
0.00222824
0.00218447
0.0021375
0.00208743
0.00203435
0.0019784
0.00191972
0.00185848
0.00179486
0.00172907
0.00166134
0.00159191
0.00152105
0.00144902
0.00137611
0.00130262
0.00122885
0.00115513
0.00108178
0.00100912
0.00093749
0.000867217
0.000798622
0.000732021
0.000667712
0.000605986
0.000547098
0.000491294
0.000438768
0.000389703
0.000344211
0.000302394
0.000264259
0.000229819
0.000198962
0.00017161
0.000147531
0.000148687
0.000170957
0.000196481
0.000225759
0.00025878
0.000296203
0.000337599
0.000384028
0.000434252
0.000490297
0.000549298
0.000615446
0.000682556
0.000759495
0.000833192
0.00092241
0.000999693
0.00110464
0.00117968
0.00130814
0.00136931
0.00153823
0.00156207
0.00180788
0.0017472
0.0021479
0.00191132
0.0026413
0.00206811
0.00345172
0.00244037
0.0025026
0.00256531
0.00262849
0.00269213
0.0027562
0.00282068
0.00288554
0.00295074
0.00301624
0.00308199
0.00314793
0.003214
0.00328014
0.00334628
0.00341234
0.00347825
0.00354392
0.00360931
0.00367437
0.00373904
0.00380311
0.00386643
0.00392891
0.00399044
0.00405091
0.00411021
0.00416821
0.00422479
0.00427984
0.00433324
0.00438487
0.00443461
0.00448236
0.00452801
0.00457146
0.0046126
0.00465135
0.0046876
0.00472129
0.00475232
0.00478064
0.00480617
0.00482887
0.00484872
0.00486569
0.00487977
0.00489096
0.00489927
0.00490473
0.00490734
0.00490716
0.00490422
0.00489857
0.00489029
0.00487944
0.00486611
0.0048504
0.0048324
0.00481223
0.00479
0.00476584
0.00473985
0.0047122
0.00468298
0.00465237
0.00462048
0.00458752
0.00455367
0.00451917
0.00448407
0.00444853
0.00441575
0.00438546
0.00435493
0.00432474
0.00429458
0.00426526
0.0042361
0.00420837
0.00418078
0.00415543
0.00412985
0.00410767
0.00408436
0.00406633
0.00404526
0.00403273
0.00401335
0.00400845
0.00398928
0.00399573
0.00397349
0.00399826
0.00396619
0.0040231
0.00396771
0.00408643
0.0039849
0.00423553
0.00406266
0.00485956
0.0155691
0.0159784
0.0163921
0.0168101
0.0172325
0.0176592
0.0180899
0.0185247
0.0189632
0.0194054
0.0198508
0.0202992
0.0207503
0.0212037
0.021659
0.0221158
0.0225737
0.0230321
0.023491
0.0239499
0.0244084
0.0248643
0.0253178
0.0257681
0.0262146
0.0266565
0.0270931
0.0275237
0.0279474
0.0283635
0.0287711
0.0291694
0.0295577
0.0299352
0.030301
0.0306544
0.0309946
0.0313209
0.0316326
0.0319289
0.0322091
0.0324727
0.032719
0.0329474
0.0331576
0.0333492
0.0335218
0.0336752
0.0338092
0.0339235
0.0340182
0.034093
0.034148
0.0341832
0.0341988
0.0341949
0.0341718
0.0341299
0.0340695
0.0339912
0.0338954
0.0337828
0.0336539
0.0335096
0.0333504
0.0331776
0.0329917
0.0327943
0.0325866
0.0323706
0.0321466
0.031916
0.0316794
0.0314391
0.0311937
0.0309467
0.0306961
0.0304468
0.0301948
0.0299474
0.0296976
0.029457
0.0292128
0.0289843
0.0287483
0.0285378
0.0283117
0.0281271
0.0279107
0.0277628
0.0275525
0.0274586
0.0272448
0.0272346
0.0269967
0.0271265
0.0268244
0.027215
0.0267836
0.0277439
0.0271831
0.0312454
0.0564649
0.0579319
0.0594144
0.0609122
0.0624251
0.063953
0.0654953
0.0670515
0.0686211
0.0702032
0.071797
0.0734014
0.0750153
0.0766374
0.0782663
0.0799007
0.0815391
0.0831799
0.0848221
0.0864652
0.0881
0.0897269
0.0913453
0.0929531
0.0945478
0.096127
0.097688
0.0992283
0.100745
0.102236
0.103698
0.105128
0.106523
0.107882
0.1092
0.110476
0.111706
0.112889
0.11402
0.115099
0.116123
0.117088
0.117993
0.118837
0.119617
0.120332
0.12098
0.121561
0.122074
0.122517
0.122891
0.123195
0.123428
0.123591
0.123683
0.123706
0.123659
0.123544
0.123362
0.123115
0.122804
0.12243
0.121997
0.121507
0.120961
0.120363
0.119717
0.119026
0.118296
0.117533
0.116739
0.115918
0.11507
0.114202
0.113314
0.112416
0.111504
0.110592
0.109669
0.108757
0.107836
0.106942
0.106038
0.105179
0.104302
0.1035
0.102657
0.101937
0.101133
0.100529
0.0997581
0.0993218
0.0985633
0.0983807
0.0975878
0.0978199
0.0969017
0.0978958
0.0967347
0.0993898
0.0980997
0.11062
0.1409
0.144416
0.147965
0.151546
0.155159
0.158804
0.16248
0.166185
0.169919
0.173679
0.177463
0.18127
0.185097
0.18894
0.192798
0.196667
0.200543
0.204423
0.208306
0.212174
0.216019
0.219848
0.223657
0.227441
0.231196
0.234916
0.238596
0.242229
0.24581
0.249334
0.252794
0.256183
0.259497
0.262728
0.265872
0.268921
0.27187
0.274714
0.277445
0.280059
0.28255
0.284911
0.287139
0.289228
0.291174
0.292974
0.294623
0.29612
0.297461
0.298643
0.299665
0.300524
0.30122
0.301751
0.302116
0.302316
0.302351
0.302223
0.301933
0.301483
0.300877
0.300117
0.299208
0.298154
0.29696
0.295633
0.294178
0.292606
0.290928
0.289157
0.287301
0.285364
0.283349
0.28127
0.279128
0.276946
0.274718
0.27247
0.270187
0.267909
0.265606
0.263339
0.26105
0.258837
0.256593
0.254482
0.25231
0.250353
0.248274
0.24654
0.244561
0.243146
0.241258
0.240312
0.23847
0.238266
0.236389
0.237521
0.23558
0.239643
0.23841
0.26162
0.270044
0.27629
0.282581
0.28892
0.295304
0.301732
0.308205
0.31472
0.321275
0.327867
0.334493
0.34115
0.347835
0.354541
0.361266
0.368004
0.374749
0.381497
0.388222
0.394905
0.401559
0.408183
0.414774
0.421323
0.427823
0.434264
0.440639
0.446938
0.453153
0.459275
0.465293
0.471198
0.476981
0.482632
0.488141
0.493499
0.498695
0.503721
0.508567
0.513222
0.517678
0.521925
0.525953
0.529756
0.533324
0.536652
0.539732
0.542559
0.545128
0.547432
0.549466
0.551226
0.552709
0.55391
0.554827
0.555459
0.555805
0.555864
0.555638
0.555128
0.554337
0.553269
0.551927
0.550319
0.548449
0.546327
0.543962
0.541367
0.538561
0.535567
0.532397
0.529051
0.525536
0.521873
0.51807
0.514156
0.51013
0.506026
0.501833
0.4976
0.493303
0.489013
0.484674
0.480399
0.476082
0.4719
0.467664
0.463662
0.459563
0.455839
0.451926
0.448607
0.444919
0.442183
0.438755
0.436907
0.433791
0.433508
0.431
0.434218
0.434233
0.463429
0.425293
0.434258
0.443276
0.452346
0.461469
0.470643
0.479867
0.489139
0.498457
0.507817
0.517215
0.526648
0.536109
0.545594
0.555096
0.564608
0.574123
0.583605
0.593038
0.602428
0.61178
0.621091
0.630353
0.639556
0.648689
0.657741
0.666702
0.67556
0.684302
0.692917
0.701392
0.709714
0.717871
0.72585
0.733638
0.741222
0.748589
0.755726
0.76262
0.769257
0.775626
0.781712
0.787503
0.792988
0.798157
0.802998
0.807504
0.811665
0.815472
0.818918
0.821994
0.824693
0.827009
0.828936
0.830469
0.831605
0.83234
0.832673
0.832604
0.832133
0.831262
0.829994
0.828333
0.826283
0.823853
0.82105
0.817886
0.814377
0.810545
0.806428
0.802028
0.797345
0.792391
0.78719
0.781755
0.776118
0.770285
0.76429
0.758133
0.751861
0.745464
0.739007
0.732461
0.725915
0.719309
0.712779
0.706208
0.699801
0.693361
0.687199
0.68099
0.675209
0.669344
0.664115
0.658742
0.654337
0.649703
0.646736
0.643542
0.64394
0.645222
0.674321
0.585483
0.596819
0.60821
0.619657
0.631159
0.642716
0.654326
0.665986
0.677695
0.689447
0.701238
0.713063
0.724916
0.736788
0.748672
0.76056
0.772411
0.784211
0.795964
0.80767
0.819328
0.830932
0.842471
0.853932
0.865304
0.876573
0.887725
0.898748
0.909626
0.920344
0.930889
0.941244
0.951394
0.961324
0.971018
0.98046
0.989637
0.99853
1.00713
1.01541
1.02336
1.03096
1.03821
1.04508
1.05156
1.05764
1.06331
1.06856
1.07338
1.07775
1.08167
1.08513
1.08812
1.09062
1.09265
1.09418
1.09522
1.09576
1.0958
1.09534
1.09439
1.09294
1.09099
1.08856
1.08565
1.08226
1.07841
1.07412
1.06942
1.06435
1.0589
1.05307
1.04689
1.04036
1.03352
1.02639
1.01898
1.01133
1.00344
0.995363
0.987097
0.978692
0.970151
0.961531
0.952824
0.944105
0.935353
0.926658
0.917986
0.909443
0.900996
0.892742
0.884696
0.876884
0.869489
0.86234
0.856018
0.850054
0.845839
0.842869
0.844631
0.870699
0.739478
0.752834
0.766245
0.779714
0.79324
0.806821
0.820456
0.834142
0.847875
0.861651
0.875464
0.889308
0.903174
0.917055
0.93094
0.944787
0.958587
0.97234
0.986042
0.999691
1.01328
1.0268
1.04024
1.05358
1.06681
1.07992
1.09289
1.10571
1.11835
1.1308
1.14304
1.15507
1.16685
1.17837
1.18962
1.20058
1.21122
1.22154
1.23151
1.24111
1.25033
1.25915
1.26756
1.27553
1.28305
1.29011
1.2967
1.3028
1.3084
1.31349
1.31805
1.32208
1.32557
1.32851
1.33088
1.33269
1.33393
1.33459
1.33467
1.33418
1.3331
1.33145
1.32922
1.32643
1.32307
1.31916
1.3147
1.30973
1.30427
1.29837
1.29201
1.2852
1.27795
1.27029
1.26225
1.25384
1.24509
1.23602
1.22666
1.21702
1.20715
1.19707
1.18681
1.17639
1.16586
1.15523
1.14456
1.13385
1.1232
1.11252
1.10206
1.09157
1.08152
1.07133
1.06202
1.05232
1.0443
1.03553
1.03006
1.02393
1.02544
1.04774
0.88391
0.899008
0.914162
0.929373
0.944641
0.959964
0.975341
0.990767
1.00624
1.02175
1.03729
1.05286
1.06845
1.08405
1.09961
1.11513
1.1306
1.14602
1.16139
1.17669
1.19193
1.20708
1.22213
1.23707
1.25188
1.26655
1.28105
1.29537
1.3095
1.32341
1.33709
1.35051
1.36366
1.37652
1.38906
1.40128
1.41314
1.42464
1.43575
1.44645
1.45672
1.46654
1.47589
1.48476
1.49313
1.50099
1.50831
1.5151
1.52132
1.52697
1.53204
1.53652
1.54039
1.54364
1.54627
1.54827
1.54963
1.55035
1.55042
1.54985
1.54863
1.54676
1.54425
1.5411
1.53732
1.53292
1.52791
1.5223
1.51617
1.50952
1.50235
1.49467
1.48649
1.47783
1.46872
1.45919
1.44926
1.43895
1.4283
1.41731
1.40605
1.3945
1.38274
1.37075
1.35863
1.34632
1.33398
1.32149
1.3091
1.29655
1.28431
1.27182
1.25998
1.24768
1.23662
1.22464
1.215
1.20373
1.19695
1.18801
1.18885
1.20743
1.01874
1.03537
1.05205
1.0688
1.0856
1.10245
1.11936
1.13631
1.15331
1.17034
1.1874
1.20449
1.22158
1.23865
1.25568
1.27267
1.28961
1.3065
1.32333
1.34008
1.35675
1.37333
1.38979
1.40612
1.42231
1.43833
1.45417
1.46981
1.48522
1.5004
1.51532
1.52995
1.54428
1.55829
1.57196
1.58526
1.59818
1.61069
1.62277
1.63441
1.64557
1.65624
1.66641
1.67604
1.68513
1.69365
1.7016
1.70895
1.71569
1.72181
1.72729
1.73213
1.7363
1.7398
1.74262
1.74475
1.74618
1.74692
1.74695
1.74627
1.74489
1.7428
1.74
1.73651
1.73233
1.72746
1.72192
1.71573
1.70897
1.70164
1.69373
1.68525
1.67621
1.66665
1.65658
1.64604
1.63505
1.62363
1.61182
1.59962
1.5871
1.57425
1.56115
1.54776
1.53422
1.52042
1.50659
1.49252
1.47857
1.46436
1.45051
1.43626
1.4228
1.40862
1.39596
1.38196
1.37081
1.35734
1.34923
1.33785
1.33778
1.3529
1.14498
1.16299
1.18106
1.19918
1.21735
1.23558
1.25386
1.27218
1.29055
1.30895
1.32737
1.34581
1.36424
1.38263
1.40099
1.4193
1.43756
1.45577
1.4739
1.49195
1.50991
1.52776
1.54548
1.56306
1.58048
1.59771
1.61474
1.63155
1.64812
1.66443
1.68045
1.69616
1.71154
1.72658
1.74124
1.7555
1.76935
1.78276
1.7957
1.80816
1.82011
1.83154
1.84241
1.85271
1.86242
1.87153
1.88001
1.88785
1.89504
1.90156
1.90739
1.91252
1.91694
1.92064
1.92361
1.92584
1.92731
1.92803
1.928
1.9272
1.92564
1.92333
1.92025
1.91642
1.91185
1.90653
1.9005
1.89376
1.88641
1.87844
1.86983
1.86061
1.85078
1.84038
1.82943
1.81795
1.80599
1.79354
1.78067
1.76736
1.7537
1.73965
1.72533
1.71067
1.69583
1.68068
1.66549
1.64999
1.63463
1.6189
1.6036
1.58776
1.57282
1.55694
1.54282
1.52701
1.51445
1.49901
1.48963
1.47608
1.47499
1.48693
1.26388
1.28315
1.30247
1.32185
1.34128
1.36077
1.38031
1.39988
1.4195
1.43914
1.45881
1.47848
1.49812
1.51773
1.5373
1.55683
1.5763
1.59571
1.61504
1.63428
1.65341
1.67242
1.6913
1.71001
1.72855
1.74689
1.765
1.78288
1.8005
1.81783
1.83485
1.85155
1.86789
1.88385
1.89941
1.91455
1.92924
1.94346
1.95718
1.97039
1.98305
1.99515
2.00666
2.01756
2.02783
2.03746
2.04642
2.05469
2.06227
2.06914
2.07527
2.08066
2.08529
2.08916
2.09224
2.09453
2.09603
2.09672
2.0966
2.09568
2.09394
2.0914
2.08804
2.08388
2.07893
2.07318
2.06666
2.05941
2.0515
2.04291
2.03366
2.02373
2.01316
2.00196
1.99018
1.97783
1.96496
1.95156
1.93769
1.92335
1.90862
1.89347
1.87801
1.86217
1.84613
1.82974
1.81329
1.79647
1.77981
1.76269
1.74605
1.72874
1.71243
1.69501
1.67953
1.66207
1.6482
1.63098
1.62038
1.60487
1.60271
1.6117
1.37656
1.397
1.4175
1.43805
1.45865
1.4793
1.5
1.52074
1.54152
1.56232
1.58314
1.60394
1.62471
1.64545
1.66616
1.68681
1.7074
1.72793
1.74837
1.76871
1.78893
1.80902
1.82896
1.84873
1.8683
1.88766
1.90679
1.92566
1.94424
1.96252
1.98047
1.99807
2.01529
2.03211
2.04851
2.06445
2.07991
2.09488
2.10932
2.12321
2.13653
2.14924
2.16133
2.17278
2.18356
2.19366
2.20305
2.21172
2.21965
2.22683
2.23323
2.23884
2.24366
2.24766
2.25084
2.25318
2.25467
2.25532
2.25512
2.25406
2.25214
2.24936
2.24573
2.24124
2.23592
2.22976
2.22277
2.21502
2.20657
2.1974
2.18751
2.17692
2.16564
2.15369
2.14112
2.12794
2.11421
2.0999
2.08511
2.06979
2.05406
2.03786
2.02134
2.00439
1.98723
1.96966
1.95204
1.93399
1.9161
1.89769
1.87979
1.86112
1.84354
1.82469
1.80793
1.78896
1.77383
1.75499
1.74321
1.72593
1.72268
1.72893
1.48402
1.50556
1.52715
1.5488
1.57049
1.59224
1.61404
1.63587
1.65774
1.67962
1.70152
1.72338
1.74522
1.76703
1.78879
1.81051
1.83216
1.85373
1.87521
1.89658
1.91783
1.93893
1.95987
1.98063
2.00117
2.02149
2.04156
2.06135
2.08084
2.10001
2.11883
2.13728
2.15532
2.17294
2.19011
2.2068
2.22299
2.23865
2.25376
2.26829
2.28221
2.2955
2.30813
2.32008
2.33133
2.34186
2.35165
2.36068
2.36893
2.37639
2.38304
2.38885
2.39383
2.39795
2.4012
2.40357
2.40506
2.40566
2.40535
2.40415
2.40204
2.39904
2.39513
2.39033
2.38464
2.37807
2.37063
2.3624
2.35343
2.34369
2.3332
2.32196
2.31
2.29734
2.28401
2.27004
2.25548
2.24031
2.22462
2.20838
2.19169
2.1745
2.15697
2.13897
2.12074
2.10206
2.08332
2.06411
2.04507
2.02544
2.00635
1.98641
1.96762
1.94744
1.92946
1.90908
1.89277
1.87242
1.8595
1.84057
1.83623
1.83992
1.58706
1.60964
1.63227
1.65496
1.67769
1.70048
1.72331
1.74618
1.76908
1.792
1.8149
1.83778
1.86063
1.88345
1.90622
1.92894
1.95159
1.97416
1.99663
2.01898
2.04119
2.06325
2.08514
2.10683
2.12829
2.14952
2.17048
2.19114
2.21149
2.2315
2.25114
2.27038
2.28921
2.30758
2.32548
2.34288
2.35975
2.37607
2.3918
2.40693
2.42142
2.43524
2.44838
2.46081
2.4725
2.48343
2.49359
2.50295
2.5115
2.51922
2.52608
2.53208
2.5372
2.54142
2.54474
2.54713
2.5486
2.54913
2.54872
2.54737
2.54508
2.54184
2.53766
2.53254
2.5265
2.51953
2.51165
2.50295
2.49347
2.48319
2.47211
2.46025
2.44763
2.43427
2.42022
2.40548
2.39012
2.37413
2.35758
2.34045
2.32285
2.30471
2.2862
2.2672
2.24795
2.22821
2.20841
2.18809
2.16794
2.14716
2.12693
2.10579
2.08584
2.0644
2.04527
2.02356
2.00611
1.98435
1.97033
1.94986
1.94442
1.94569
1.68635
1.70992
1.73355
1.75723
1.78096
1.80474
1.82856
1.85242
1.8763
1.9002
1.92407
1.94792
1.97174
1.99553
2.01926
2.04294
2.06655
2.09006
2.11347
2.13675
2.15989
2.18287
2.20565
2.22823
2.25058
2.27267
2.29447
2.31597
2.33714
2.35795
2.37837
2.39837
2.41793
2.43703
2.45562
2.4737
2.49121
2.50815
2.52448
2.54017
2.5552
2.56953
2.58315
2.59602
2.60812
2.61944
2.62994
2.63962
2.64844
2.6564
2.66347
2.66963
2.67488
2.67919
2.68255
2.68496
2.6864
2.68686
2.68635
2.68485
2.68236
2.67889
2.67444
2.66901
2.66261
2.65525
2.64694
2.63778
2.62781
2.61699
2.60535
2.59288
2.57962
2.56558
2.55082
2.53535
2.51922
2.50243
2.48505
2.46705
2.44856
2.42951
2.41006
2.39009
2.36986
2.34911
2.32828
2.3069
2.28569
2.26379
2.24248
2.22018
2.19913
2.17648
2.15624
2.13327
2.11472
2.09163
2.07654
2.05461
2.04807
2.04706
1.78245
1.80698
1.83156
1.85619
1.88088
1.90561
1.93039
1.95519
1.98003
2.00485
2.02966
2.05444
2.0792
2.10391
2.12858
2.15318
2.1777
2.20213
2.22644
2.25062
2.27464
2.2985
2.32215
2.34558
2.36877
2.39168
2.41431
2.4366
2.45855
2.48012
2.50129
2.52203
2.5423
2.56208
2.58134
2.60005
2.61819
2.63572
2.65262
2.66885
2.68439
2.69921
2.71328
2.72657
2.73907
2.75074
2.76158
2.77154
2.78063
2.78881
2.79607
2.80238
2.80775
2.81214
2.81554
2.81795
2.81935
2.81974
2.81911
2.81746
2.81479
2.81109
2.80636
2.80063
2.79388
2.78612
2.7774
2.76779
2.75733
2.74599
2.73378
2.72072
2.70684
2.69214
2.67669
2.6605
2.64362
2.62605
2.60786
2.58903
2.56968
2.54974
2.52938
2.50847
2.48729
2.46556
2.44373
2.42132
2.39909
2.37613
2.35376
2.33035
2.30823
2.28443
2.26311
2.23894
2.21932
2.19496
2.17882
2.15551
2.14787
2.14468
1.87581
1.90126
1.92677
1.95233
1.97794
2.00359
2.02928
2.05501
2.08075
2.10648
2.13219
2.15788
2.18354
2.20915
2.23471
2.26021
2.28562
2.31092
2.33611
2.36115
2.38603
2.41073
2.43522
2.45947
2.48347
2.50719
2.53059
2.55366
2.57636
2.59867
2.62056
2.642
2.66295
2.68339
2.70329
2.72263
2.74136
2.75946
2.7769
2.79365
2.80968
2.82496
2.83947
2.85317
2.86604
2.87806
2.8892
2.89945
2.90878
2.91717
2.9246
2.93106
2.93653
2.94099
2.94442
2.94683
2.94819
2.9485
2.94775
2.94595
2.94308
2.93915
2.93416
2.92811
2.92101
2.91288
2.90374
2.89369
2.88275
2.87089
2.85814
2.84449
2.83
2.81466
2.79853
2.78163
2.76402
2.74569
2.72671
2.70707
2.68688
2.66607
2.64483
2.62301
2.60089
2.5782
2.55541
2.53201
2.50877
2.48478
2.46139
2.43691
2.41375
2.38883
2.36647
2.34114
2.32048
2.2949
2.27773
2.25309
2.24436
2.23909
1.96682
1.99317
2.01957
2.04603
2.07253
2.09908
2.12567
2.15229
2.17891
2.20552
2.23211
2.25867
2.28521
2.3117
2.33813
2.36449
2.39075
2.41691
2.44294
2.46882
2.49453
2.52005
2.54535
2.5704
2.59519
2.61968
2.64384
2.66766
2.69109
2.71412
2.7367
2.75881
2.78043
2.80151
2.82203
2.84196
2.86126
2.87991
2.89788
2.91513
2.93164
2.94736
2.96229
2.97638
2.98961
3.00196
3.0134
3.02391
3.03347
3.04206
3.04966
3.05625
3.06181
3.06633
3.0698
3.07219
3.07351
3.07373
3.07287
3.0709
3.06784
3.06367
3.05841
3.05206
3.04462
3.0361
3.02655
3.01607
3.00465
2.99229
2.979
2.96478
2.94968
2.93371
2.91692
2.89933
2.881
2.86191
2.84217
2.82172
2.80071
2.77905
2.75695
2.73423
2.71121
2.68759
2.66385
2.63948
2.61527
2.59027
2.56588
2.54035
2.51618
2.49018
2.4668
2.44035
2.41868
2.39192
2.37374
2.34782
2.33799
2.33072
2.05581
2.08303
2.11031
2.13764
2.16502
2.19244
2.21989
2.24738
2.27486
2.30232
2.32977
2.35719
2.38458
2.41192
2.4392
2.4664
2.49351
2.52049
2.54735
2.57405
2.60056
2.62688
2.65296
2.67879
2.70435
2.72959
2.75449
2.77903
2.80318
2.82689
2.85016
2.87293
2.89518
2.91689
2.93801
2.95852
2.97838
2.99756
3.01604
3.03377
3.05074
3.0669
3.08222
3.09669
3.11026
3.12293
3.13465
3.14542
3.1552
3.16399
3.17174
3.17846
3.18411
3.18868
3.19216
3.19454
3.1958
3.19594
3.19495
3.19283
3.18956
3.18517
3.17964
3.17298
3.16519
3.1563
3.14635
3.13543
3.12355
3.11068
3.09685
3.08207
3.06638
3.04978
3.03234
3.01406
2.99502
2.9752
2.9547
2.93347
2.91165
2.88916
2.8662
2.84261
2.8187
2.79416
2.7695
2.74417
2.71901
2.69302
2.66766
2.64112
2.61594
2.5889
2.56451
2.53697
2.5143
2.4864
2.46722
2.44006
2.42913
2.41995
2.14304
2.17112
2.19926
2.22744
2.25567
2.28394
2.31225
2.34058
2.3689
2.39721
2.42549
2.45375
2.48198
2.51015
2.53826
2.56628
2.5942
2.622
2.64966
2.67716
2.70446
2.73156
2.75841
2.785
2.8113
2.83728
2.8629
2.88815
2.91299
2.93738
2.9613
2.98472
3.0076
3.02991
3.05161
3.07269
3.09309
3.11279
3.13176
3.14997
3.16738
3.18396
3.19967
3.2145
3.22842
3.24138
3.25339
3.2644
3.27439
3.28336
3.29126
3.29809
3.30382
3.30845
3.31194
3.3143
3.3155
3.31555
3.31443
3.31214
3.30868
3.30405
3.29825
3.29128
3.28316
3.27389
3.26354
3.25219
3.23984
3.22648
3.21212
3.19678
3.18049
3.16328
3.14519
3.12624
3.1065
3.08596
3.0647
3.0427
3.02008
2.99678
2.97298
2.94853
2.92374
2.8983
2.87273
2.84647
2.82037
2.79341
2.76709
2.73955
2.7134
2.68533
2.65995
2.63135
2.6077
2.57869
2.55852
2.53014
2.51812
2.50707
2.22876
2.25768
2.28666
2.31568
2.34475
2.37386
2.403
2.43216
2.4613
2.49043
2.51954
2.54863
2.57767
2.60666
2.63558
2.66441
2.69313
2.72173
2.75017
2.77845
2.80653
2.83438
2.86199
2.88933
2.91635
2.94305
2.96938
2.99532
3.02084
3.0459
3.07046
3.09451
3.118
3.1409
3.16318
3.1848
3.20573
3.22594
3.2454
3.26406
3.28191
3.29889
3.31499
3.33018
3.34441
3.35768
3.36995
3.38119
3.3914
3.40053
3.40858
3.41551
3.42132
3.42599
3.42949
3.43182
3.43297
3.43292
3.43167
3.42921
3.42555
3.42069
3.41461
3.40734
3.39887
3.38922
3.37849
3.36671
3.35389
3.34003
3.32515
3.30925
3.29238
3.27456
3.25583
3.23621
3.21578
3.19452
3.17252
3.14975
3.12635
3.10223
3.07761
3.05231
3.02665
3.00033
2.97386
2.94668
2.91965
2.89175
2.86447
2.83595
2.80884
2.77976
2.75341
2.72378
2.69915
2.66905
2.6479
2.61834
2.60521
2.59237
2.31317
2.34292
2.37272
2.40257
2.43246
2.46239
2.49236
2.52233
2.55228
2.58222
2.61215
2.64204
2.67189
2.70168
2.7314
2.76102
2.79053
2.81991
2.84913
2.87818
2.90701
2.93562
2.96397
2.99203
3.01978
3.04718
3.07421
3.10083
3.12701
3.15272
3.17792
3.20258
3.22667
3.25015
3.27299
3.29515
3.31661
3.33731
3.35724
3.37635
3.39462
3.41201
3.42848
3.44401
3.45856
3.47211
3.48464
3.49611
3.50651
3.51582
3.524
3.53104
3.53692
3.54162
3.54512
3.54742
3.5485
3.54835
3.54697
3.54435
3.54049
3.53538
3.52903
3.52145
3.51264
3.50262
3.49149
3.47928
3.46601
3.45165
3.43625
3.4198
3.40235
3.38391
3.36455
3.34427
3.32315
3.30118
3.27845
3.25492
3.23074
3.20582
3.18037
3.15423
3.12772
3.10052
3.07317
3.04507
3.01713
2.98829
2.96008
2.93059
2.90253
2.87246
2.84515
2.81449
2.78889
2.75773
2.7356
2.70488
2.69064
2.67606
2.39646
2.42702
2.45763
2.48829
2.519
2.54975
2.58052
2.61129
2.64204
2.67279
2.70351
2.7342
2.76485
2.79543
2.82593
2.85634
2.88663
2.91677
2.94676
2.97656
3.00614
3.03549
3.06457
3.09335
3.1218
3.1499
3.17761
3.2049
3.23174
3.25808
3.28391
3.30918
3.33386
3.35791
3.3813
3.40399
3.42596
3.44715
3.46754
3.4871
3.50578
3.52355
3.54039
3.55625
3.57112
3.58495
3.59773
3.60943
3.62002
3.62948
3.63779
3.64493
3.65087
3.65561
3.65911
3.66137
3.66239
3.66214
3.66062
3.65782
3.65375
3.64841
3.64179
3.6339
3.62474
3.61435
3.60283
3.59019
3.57645
3.56161
3.54568
3.52868
3.51066
3.49161
3.47162
3.45068
3.42888
3.4062
3.38274
3.35845
3.3335
3.30779
3.28153
3.25455
3.22719
3.19912
3.17088
3.1419
3.11304
3.08328
3.05413
3.0237
2.99469
2.96364
2.93538
2.90371
2.87716
2.84495
2.82184
2.78998
2.77463
2.75835
2.47876
2.51013
2.54155
2.57302
2.60453
2.63608
2.66765
2.69921
2.73076
2.7623
2.79381
2.82529
2.85672
2.88808
2.91937
2.95054
2.9816
3.01251
3.04325
3.07379
3.10411
3.13419
3.16399
3.19348
3.22263
3.25142
3.2798
3.30775
3.33523
3.36221
3.38865
3.41452
3.43978
3.4644
3.48833
3.51154
3.53401
3.55568
3.57653
3.59652
3.61561
3.63377
3.65096
3.66716
3.68232
3.69643
3.70946
3.72137
3.73215
3.74176
3.7502
3.75743
3.76343
3.76819
3.77169
3.77392
3.77485
3.7745
3.77284
3.76987
3.76559
3.76
3.75311
3.74491
3.73541
3.72465
3.71273
3.69966
3.68546
3.67013
3.65368
3.63613
3.61753
3.59788
3.57726
3.55567
3.53318
3.5098
3.48561
3.46058
3.43485
3.40835
3.38128
3.35348
3.32527
3.29634
3.26723
3.23735
3.20759
3.17691
3.14684
3.11546
3.08551
3.0535
3.02429
2.99163
2.96412
2.93088
2.9068
2.87381
2.85734
2.83941
2.56024
2.5924
2.62462
2.65689
2.68919
2.72154
2.7539
2.78624
2.81858
2.8509
2.8832
2.91546
2.94767
2.97981
3.01186
3.0438
3.07562
3.10728
3.13876
3.17005
3.2011
3.2319
3.26241
3.2926
3.32244
3.35191
3.38096
3.40956
3.43768
3.46529
3.49234
3.5188
3.54463
3.5698
3.59427
3.618
3.64096
3.66311
3.6844
3.70482
3.72431
3.74285
3.7604
3.77692
3.79238
3.80676
3.82002
3.83215
3.8431
3.85287
3.86142
3.86874
3.8748
3.87958
3.88307
3.88526
3.88612
3.88565
3.88385
3.88071
3.87622
3.87038
3.86321
3.85469
3.84485
3.83372
3.8214
3.80791
3.79324
3.77742
3.76045
3.74236
3.72317
3.70292
3.68167
3.65943
3.63626
3.61218
3.58726
3.56148
3.53499
3.5077
3.47982
3.4512
3.42215
3.39236
3.36238
3.33161
3.30096
3.26936
3.23838
3.20607
3.17518
3.14221
3.11205
3.07841
3.04995
3.01569
2.99064
2.95653
2.93893
2.91939
2.641
2.67396
2.70697
2.74003
2.77313
2.80626
2.8394
2.87253
2.90565
2.93875
2.97183
3.00486
3.03784
3.07075
3.10356
3.13626
3.16883
3.20124
3.23346
3.26548
3.29726
3.32877
3.35999
3.39087
3.4214
3.45154
3.48125
3.5105
3.53926
3.56748
3.59513
3.62218
3.64858
3.6743
3.6993
3.72354
3.74699
3.7696
3.79135
3.81218
3.83208
3.85099
3.86888
3.88572
3.90147
3.91612
3.92962
3.94195
3.95308
3.96299
3.97166
3.97906
3.98517
3.98998
3.99345
3.99559
3.99637
3.99579
3.99384
3.99052
3.98581
3.97973
3.97227
3.96344
3.95325
3.94176
3.92904
3.91511
3.89999
3.88367
3.86618
3.84753
3.82778
3.80692
3.78504
3.76214
3.7383
3.71351
3.68787
3.66135
3.63409
3.60601
3.57733
3.54788
3.518
3.48736
3.45651
3.42486
3.39331
3.36081
3.32891
3.29566
3.26385
3.22993
3.19883
3.16421
3.1348
3.09952
3.0735
3.03828
3.01955
2.99843
2.72116
2.75491
2.78871
2.82256
2.85644
2.89036
2.92428
2.95818
2.99208
3.02596
3.05981
3.09362
3.12736
3.16103
3.1946
3.22806
3.26137
3.29453
3.32749
3.36023
3.39273
3.42495
3.45687
3.48845
3.51966
3.55046
3.58083
3.61072
3.64011
3.66894
3.69719
3.72482
3.75179
3.77805
3.80358
3.82833
3.85226
3.87534
3.89752
3.91877
3.93906
3.95834
3.97657
3.99373
4.00977
4.02467
4.0384
4.05094
4.06224
4.0723
4.08108
4.08856
4.09472
4.09953
4.10299
4.10508
4.10578
4.10508
4.10298
4.09947
4.09455
4.08822
4.08048
4.07133
4.06078
4.04892
4.03581
4.02144
4.00585
3.98904
3.97103
3.95183
3.93149
3.91004
3.88752
3.86397
3.83945
3.81396
3.7876
3.76033
3.7323
3.70344
3.67396
3.64369
3.61296
3.58147
3.54976
3.51722
3.48479
3.45137
3.41856
3.38439
3.35165
3.31678
3.28474
3.24915
3.2188
3.18251
3.15552
3.11919
3.09931
3.07666
2.80082
2.83536
2.86995
2.90458
2.93925
2.97395
3.00864
3.04332
3.07799
3.11264
3.14726
3.18184
3.21635
3.25078
3.28511
3.31931
3.35337
3.38726
3.42095
3.45442
3.48763
3.52056
3.55318
3.58545
3.61734
3.64881
3.67983
3.71036
3.74037
3.76981
3.79866
3.82686
3.85439
3.8812
3.90725
3.9325
3.95691
3.98045
4.00307
4.02474
4.04541
4.06505
4.08363
4.10109
4.11742
4.13258
4.14654
4.15927
4.17075
4.18094
4.18983
4.19738
4.20359
4.20841
4.21185
4.21389
4.2145
4.21368
4.21143
4.20773
4.20259
4.196
4.18797
4.1785
4.16761
4.15537
4.14185
4.12705
4.11099
4.09368
4.07514
4.0554
4.03448
4.01242
3.98927
3.96506
3.93986
3.91367
3.88658
3.85856
3.82977
3.80012
3.76984
3.73875
3.70719
3.67484
3.64226
3.60885
3.57552
3.5412
3.50748
3.47238
3.43871
3.4029
3.36992
3.33337
3.30206
3.26477
3.23679
3.19937
3.17834
3.15418
2.88008
2.9154
2.95077
2.98619
3.02164
3.05711
3.09258
3.12804
3.16348
3.19891
3.23429
3.26963
3.30491
3.34009
3.37518
3.41013
3.44493
3.47956
3.51398
3.54817
3.5821
3.61573
3.64904
3.682
3.71456
3.74669
3.77836
3.80953
3.84016
3.87022
3.89966
3.92844
3.95652
3.98387
4.01044
4.03619
4.06108
4.08507
4.10813
4.13021
4.15127
4.17127
4.19018
4.20796
4.22457
4.23998
4.25417
4.26709
4.27873
4.28906
4.29805
4.30568
4.31192
4.31676
4.32017
4.32215
4.32267
4.32173
4.31932
4.31543
4.31007
4.30322
4.29489
4.28509
4.27385
4.26125
4.24731
4.23207
4.21554
4.19773
4.17867
4.15836
4.13687
4.11419
4.09041
4.06554
4.03966
4.01276
3.98495
3.95618
3.92662
3.89619
3.8651
3.83318
3.80078
3.76759
3.73413
3.69984
3.66562
3.6304
3.59577
3.55975
3.52515
3.48839
3.45447
3.41695
3.3847
3.3464
3.31745
3.27893
3.25673
3.23109
2.95901
2.99512
3.03127
3.06747
3.10371
3.13996
3.1762
3.21243
3.24865
3.28484
3.321
3.3571
3.39314
3.42908
3.46492
3.50062
3.53616
3.57152
3.60667
3.64158
3.67622
3.71056
3.74457
3.77821
3.81144
3.84424
3.87656
3.90836
3.93961
3.97027
4.0003
4.02966
4.0583
4.08618
4.11327
4.13952
4.16489
4.18934
4.21283
4.23531
4.25676
4.27712
4.29636
4.31445
4.33134
4.347
4.3614
4.37452
4.38633
4.39679
4.40588
4.41357
4.41985
4.4247
4.42808
4.43
4.43042
4.42936
4.42678
4.4227
4.41711
4.41
4.40138
4.39125
4.37965
4.36667
4.35232
4.33664
4.31963
4.30132
4.28172
4.26086
4.23878
4.21549
4.19107
4.16554
4.13897
4.11137
4.08282
4.05331
4.02297
3.99175
3.95985
3.92711
3.89387
3.85982
3.8255
3.79032
3.75521
3.71908
3.68353
3.64659
3.61106
3.57336
3.5385
3.50002
3.4668
3.42751
3.39756
3.35795
3.33459
3.30749
3.03769
3.07458
3.11153
3.14851
3.18553
3.22255
3.25957
3.29658
3.33357
3.37053
3.40746
3.44433
3.48112
3.51783
3.55442
3.59086
3.62715
3.66325
3.69913
3.73476
3.77011
3.80516
3.83986
3.87418
3.90809
3.94154
3.97451
4.00695
4.03882
4.07009
4.10071
4.13064
4.15983
4.18825
4.21586
4.2426
4.26845
4.29335
4.31727
4.34017
4.36199
4.38271
4.40229
4.42068
4.43784
4.45375
4.46838
4.48169
4.49365
4.50424
4.51343
4.52119
4.5275
4.53235
4.5357
4.53755
4.53788
4.53668
4.53394
4.52966
4.52383
4.51646
4.50754
4.49707
4.48513
4.47176
4.457
4.44086
4.42338
4.40456
4.38443
4.363
4.34032
4.31642
4.29136
4.26517
4.23791
4.20959
4.18031
4.15004
4.11893
4.08691
4.0542
4.02064
3.98655
3.95164
3.91645
3.88039
3.84438
3.80734
3.77087
3.733
3.69654
3.6579
3.62209
3.58264
3.54847
3.50818
3.47723
3.43653
3.41198
3.38346
3.11619
3.15388
3.19161
3.22938
3.26718
3.30498
3.34277
3.38056
3.41833
3.45607
3.49376
3.5314
3.56896
3.60642
3.64376
3.68096
3.71799
3.75482
3.79143
3.82779
3.86385
3.8996
3.935
3.97
4.00459
4.03871
4.07232
4.1054
4.13789
4.16977
4.20097
4.23147
4.26123
4.29018
4.31831
4.34555
4.37187
4.39722
4.42157
4.44488
4.46708
4.48816
4.50807
4.52676
4.5442
4.56035
4.5752
4.58869
4.60081
4.61153
4.62081
4.62864
4.63498
4.63982
4.64314
4.64492
4.64515
4.64382
4.64091
4.63642
4.63036
4.62271
4.61348
4.60269
4.59038
4.57662
4.56144
4.54485
4.52689
4.50755
4.48688
4.46489
4.44161
4.41709
4.39139
4.36452
4.33656
4.30753
4.27751
4.24648
4.21459
4.18178
4.14825
4.11385
4.07892
4.04315
4.00707
3.97013
3.93321
3.89527
3.85788
3.81908
3.78168
3.74209
3.70533
3.66492
3.62978
3.58849
3.55654
3.51474
3.48899
3.45907
3.19458
3.23306
3.27158
3.31014
3.34873
3.38731
3.42589
3.46445
3.503
3.54151
3.57998
3.61839
3.65671
3.69494
3.73303
3.77098
3.80876
3.84633
3.88367
3.92075
3.95753
3.99399
4.03008
4.06578
4.10103
4.13582
4.17008
4.2038
4.23692
4.26939
4.30119
4.33227
4.36258
4.39207
4.42071
4.44845
4.47525
4.50106
4.52583
4.54954
4.57213
4.59356
4.6138
4.63279
4.6505
4.66691
4.68196
4.69564