/*--------------------------------*- C++ -*----------------------------------*\
| =========                 |                                                 |
| \\      /  F ield         | OpenFOAM: The Open Source CFD Toolbox           |
|  \\    /   O peration     | Version:  2506                                  |
|   \\  /    A nd           | Website:  www.openfoam.com                      |
|    \\/     M anipulation  |                                                 |
\*---------------------------------------------------------------------------*/
FoamFile
{
    version     2.0;
    format      ascii;
    arch        "LSB;label=32;scalar=64";
    class       volVectorField;
    location    "0";
    object      U;
}
// * * * * * * * * * * * * * * * * * * * * * * * * * * * * * * * * * * * * * //

dimensions      [0 1 -1 0 0 0 0];

internalField   nonuniform List<vector> 
17908
(
(-0.255511 2.50188e-05 0)
(-0.257872 2.38603e-05 0)
(-0.260145 2.27298e-05 0)
(-0.262328 2.16253e-05 0)
(-0.264421 2.05388e-05 0)
(-0.266422 1.94674e-05 0)
(-0.268329 1.84066e-05 0)
(-0.270139 1.73532e-05 0)
(-0.27185 1.63038e-05 0)
(-0.273458 1.52552e-05 0)
(-0.274961 1.42044e-05 0)
(-0.276352 1.3149e-05 0)
(-0.27763 1.20869e-05 0)
(-0.278787 1.10163e-05 0)
(-0.279821 9.93588e-06 0)
(-0.280725 8.84454e-06 0)
(-0.281493 7.74182e-06 0)
(-0.282122 6.62874e-06 0)
(-0.282603 5.50736e-06 0)
(-0.282933 4.37826e-06 0)
(-0.283106 3.2403e-06 0)
(-0.283116 2.09355e-06 0)
(-0.282958 9.38799e-07 0)
(-0.282625 -2.23655e-07 0)
(-0.282111 -1.39306e-06 0)
(-0.281411 -2.56836e-06 0)
(-0.280519 -3.74819e-06 0)
(-0.279428 -4.9311e-06 0)
(-0.278133 -6.1155e-06 0)
(-0.276629 -7.29976e-06 0)
(-0.274909 -8.48221e-06 0)
(-0.272969 -9.66084e-06 0)
(-0.270803 -1.08338e-05 0)
(-0.268407 -1.19985e-05 0)
(-0.265776 -1.3153e-05 0)
(-0.262906 -1.42947e-05 0)
(-0.259794 -1.54219e-05 0)
(-0.256434 -1.65322e-05 0)
(-0.252825 -1.76245e-05 0)
(-0.248964 -1.8696e-05 0)
(-0.244848 -1.97448e-05 0)
(-0.240475 -2.07679e-05 0)
(-0.235845 -2.17621e-05 0)
(-0.230956 -2.27251e-05 0)
(-0.225808 -2.36537e-05 0)
(-0.220403 -2.45469e-05 0)
(-0.214741 -2.54021e-05 0)
(-0.208825 -2.62189e-05 0)
(-0.202655 -2.6995e-05 0)
(-0.196234 -2.773e-05 0)
(-0.189567 -2.84211e-05 0)
(-0.182657 -2.90686e-05 0)
(-0.175507 -2.96687e-05 0)
(-0.168125 -3.0223e-05 0)
(-0.160514 -3.07262e-05 0)
(-0.152681 -3.11829e-05 0)
(-0.144635 -3.15842e-05 0)
(-0.136381 -3.19404e-05 0)
(-0.12793 -3.22363e-05 0)
(-0.119288 -3.24915e-05 0)
(-0.110466 -3.26794e-05 0)
(-0.101473 -3.28355e-05 0)
(-0.0923204 -3.2914e-05 0)
(-0.0830169 -3.29753e-05 0)
(-0.0735763 -3.29441e-05 0)
(-0.0640058 -3.29187e-05 0)
(-0.054322 -3.27792e-05 0)
(-0.044529 -3.26801e-05 0)
(-0.0346476 -3.24333e-05 0)
(-0.0246763 -3.22746e-05 0)
(-0.0146449 -3.19038e-05 0)
(-0.00454295 -3.17044e-05 0)
(0.00558666 -3.11936e-05 0)
(0.0157708 -3.09979e-05 0)
(0.0259465 -3.03126e-05 0)
(0.0361691 -3.01958e-05 0)
(0.0463409 -2.9271e-05 0)
(0.056565 -2.93458e-05 0)
(0.06668 -2.80489e-05 0)
(0.0768755 -2.85128e-05 0)
(0.0868759 -2.66039e-05 0)
(0.0970288 -2.78126e-05 0)
(0.106848 -2.48407e-05 0)
(0.11697 -2.74309e-05 0)
(0.126517 -2.2561e-05 0)
(0.136666 -2.77014e-05 0)
(0.145806 -1.93765e-05 0)
(0.156126 -2.9223e-05 0)
(0.164625 -1.45289e-05 0)
(0.175421 -3.31191e-05 0)
(0.18285 -6.56036e-06 0)
(0.194735 -4.15022e-05 0)
(0.200281 7.32917e-06 0)
(0.21447 -5.8419e-05 0)
(0.216564 3.24854e-05 0)
(0.235449 -9.16426e-05 0)
(0.231108 7.89488e-05 0)
(0.259404 -0.000156233 0)
(0.243216 0.000164628 0)
(0.290505 -0.000282356 0)
(0.253996 0.000322388 0)
(0.334224 -0.00054896 0)
(-0.752597 0.000300768 0)
(-0.759068 0.000285256 0)
(-0.765277 0.000270091 0)
(-0.771223 0.000255212 0)
(-0.776901 0.000240549 0)
(-0.782306 0.000226054 0)
(-0.787432 0.000211681 0)
(-0.792272 0.00019739 0)
(-0.796817 0.00018314 0)
(-0.801058 0.000168896 0)
(-0.804983 0.000154626 0)
(-0.808581 0.0001403 0)
(-0.811839 0.000125898 0)
(-0.814743 0.0001114 0)
(-0.817281 9.67908e-05 0)
(-0.819435 8.20603e-05 0)
(-0.821191 6.72069e-05 0)
(-0.822532 5.22424e-05 0)
(-0.823443 3.71874e-05 0)
(-0.823907 2.20604e-05 0)
(-0.823911 6.87273e-06 0)
(-0.823437 -8.37618e-06 0)
(-0.822471 -2.36919e-05 0)
(-0.820994 -3.90706e-05 0)
(-0.818991 -5.45011e-05 0)
(-0.816445 -6.99682e-05 0)
(-0.813338 -8.54544e-05 0)
(-0.809655 -0.00010094 0)
(-0.805379 -0.000116406 0)
(-0.800494 -0.00013183 0)
(-0.794986 -0.00014719 0)
(-0.78884 -0.000162462 0)
(-0.782041 -0.00017762 0)
(-0.774576 -0.000192635 0)
(-0.766433 -0.00020748 0)
(-0.7576 -0.000222128 0)
(-0.748067 -0.000236554 0)
(-0.737825 -0.000250734 0)
(-0.726863 -0.000264646 0)
(-0.715175 -0.000278262 0)
(-0.702754 -0.000291552 0)
(-0.689596 -0.000304482 0)
(-0.675697 -0.000317016 0)
(-0.661056 -0.000329123 0)
(-0.645673 -0.000340774 0)
(-0.629551 -0.00035195 0)
(-0.612692 -0.000362627 0)
(-0.595102 -0.000372794 0)
(-0.576785 -0.000382429 0)
(-0.557751 -0.000391521 0)
(-0.538009 -0.000400047 0)
(-0.517568 -0.000407994 0)
(-0.496444 -0.00041534 0)
(-0.474649 -0.000422077 0)
(-0.4522 -0.000428178 0)
(-0.429116 -0.00043365 0)
(-0.405416 -0.000438457 0)
(-0.381123 -0.000442627 0)
(-0.35626 -0.000446109 0)
(-0.330851 -0.000448965 0)
(-0.304925 -0.00045111 0)
(-0.278506 -0.00045266 0)
(-0.251627 -0.000453475 0)
(-0.224313 -0.000453754 0)
(-0.196602 -0.000453267 0)
(-0.168517 -0.000452341 0)
(-0.140102 -0.000450618 0)
(-0.111372 -0.000448596 0)
(-0.0823831 -0.000445713 0)
(-0.053134 -0.000442687 0)
(-0.0237065 -0.000438609 0)
(0.00592515 -0.00043467 0)
(0.0356442 -0.00042939 0)
(0.0655194 -0.000424748 0)
(0.095382 -0.000418272 0)
(0.125375 -0.000413286 0)
(0.155239 -0.000405524 0)
(0.185241 -0.00040062 0)
(0.214958 -0.000391235 0)
(0.244879 -0.000387112 0)
(0.274288 -0.000375486 0)
(0.304078 -0.000373364 0)
(0.332996 -0.000358225 0)
(0.362674 -0.000360161 0)
(0.390862 -0.000339079 0)
(0.420564 -0.00034879 0)
(0.447671 -0.000317145 0)
(0.477752 -0.000341332 0)
(0.503182 -0.000290408 0)
(0.534404 -0.000341543 0)
(0.557082 -0.000254836 0)
(0.590984 -0.000356265 0)
(0.608871 -0.000202499 0)
(0.648506 -0.000398623 0)
(0.657696 -0.000118277 0)
(0.709073 -0.000494377 0)
(0.702152 2.53945e-05 0)
(0.777121 -0.000696973 0)
(0.740735 0.000270299 0)
(0.863421 -0.00113194 0)
(0.77702 0.0007036 0)
(0.987505 -0.0026744 0)
(-1.2399 0.00082432 0)
(-1.24987 0.000780158 0)
(-1.2594 0.000736946 0)
(-1.2685 0.000694503 0)
(-1.27716 0.00065265 0)
(-1.28536 0.000611253 0)
(-1.2931 0.000570188 0)
(-1.30037 0.000529344 0)
(-1.30715 0.000488613 0)
(-1.31342 0.000447898 0)
(-1.31916 0.000407112 0)
(-1.32437 0.000366182 0)
(-1.32901 0.000325049 0)
(-1.33307 0.000283664 0)
(-1.33652 0.000241985 0)
(-1.33934 0.000199989 0)
(-1.3415 0.000157673 0)
(-1.34298 0.000115069 0)
(-1.34375 7.22281e-05 0)
(-1.34379 2.92123e-05 0)
(-1.34306 -1.39189e-05 0)
(-1.34156 -5.71668e-05 0)
(-1.33925 -0.000100562 0)
(-1.33611 -0.000144097 0)
(-1.3321 -0.000187737 0)
(-1.32721 -0.00023144 0)
(-1.32141 -0.000275156 0)
(-1.31467 -0.000318831 0)
(-1.30696 -0.000362408 0)
(-1.29827 -0.000405827 0)
(-1.28856 -0.000449027 0)
(-1.27782 -0.000491938 0)
(-1.26602 -0.000534489 0)
(-1.25314 -0.000576602 0)
(-1.23916 -0.000618201 0)
(-1.22407 -0.000659212 0)
(-1.20785 -0.000699569 0)
(-1.19048 -0.000739204 0)
(-1.17195 -0.000778054 0)
(-1.15225 -0.000816041 0)
(-1.13136 -0.000853084 0)
(-1.10929 -0.000889091 0)
(-1.08603 -0.000923962 0)
(-1.06157 -0.000957617 0)
(-1.03592 -0.000989975 0)
(-1.00907 -0.00102098 0)
(-0.981045 -0.00105058 0)
(-0.95184 -0.00107874 0)
(-0.921467 -0.0011054 0)
(-0.88994 -0.00113052 0)
(-0.857272 -0.00115405 0)
(-0.823483 -0.00117595 0)
(-0.788592 -0.00119617 0)
(-0.752623 -0.00121467 0)
(-0.715602 -0.0012314 0)
(-0.677559 -0.00124636 0)
(-0.638525 -0.00125947 0)
(-0.598534 -0.00127078 0)
(-0.557625 -0.0012802 0)
(-0.515836 -0.00128784 0)
(-0.473211 -0.00129354 0)
(-0.429791 -0.00129752 0)
(-0.385627 -0.00129953 0)
(-0.340761 -0.00129995 0)
(-0.295251 -0.00129837 0)
(-0.249134 -0.0012954 0)
(-0.202481 -0.00129041 0)
(-0.155315 -0.00128434 0)
(-0.107726 -0.00127619 0)
(-0.0597143 -0.00126725 0)
(-0.0114059 -0.00125592 0)
(0.0372341 -0.00124435 0)
(0.0860271 -0.00122985 0)
(0.135072 -0.00121608 0)
(0.184113 -0.00119856 0)
(0.233359 -0.00118341 0)
(0.282423 -0.00116285 0)
(0.331692 -0.00114718 0)
(0.380542 -0.00112306 0)
(0.429681 -0.00110825 0)
(0.478065 -0.0010796 0)
(0.526985 -0.00106804 0)
(0.574622 -0.00103269 0)
(0.623329 -0.00102823 0)
(0.669861 -0.000981947 0)
(0.718534 -0.000991495 0)
(0.763445 -0.000926109 0)
(0.812575 -0.000961924 0)
(0.855011 -0.00086192 0)
(0.90567 -0.000946727 0)
(0.944107 -0.000782621 0)
(0.998473 -0.000958784 0)
(1.03004 -0.000674665 0)
(1.09243 -0.00102279 0)
(1.11163 -0.000512225 0)
(1.19058 -0.00118781 0)
(1.18704 -0.000249322 0)
(1.29931 -0.00155936 0)
(1.25446 0.000173916 0)
(1.43432 -0.00240346 0)
(1.32012 0.000855792 0)
(1.63153 -0.00595433 0)
(-1.71089 0.0015827 0)
(-1.72357 0.00149498 0)
(-1.73565 0.00140907 0)
(-1.74711 0.00132462 0)
(-1.75797 0.00124128 0)
(-1.76819 0.00115882 0)
(-1.77777 0.00107697 0)
(-1.78668 0.000995538 0)
(-1.79492 0.000914313 0)
(-1.80245 0.000833111 0)
(-1.80925 0.000751768 0)
(-1.8153 0.000670147 0)
(-1.82057 0.000588137 0)
(-1.82503 0.000505645 0)
(-1.82864 0.000422598 0)
(-1.83139 0.000338949 0)
(-1.83322 0.000254693 0)
(-1.83412 0.000169872 0)
(-1.83404 8.45795e-05 0)
(-1.83295 -9.97391e-07 0)
(-1.83082 -8.66986e-05 0)
(-1.82762 -0.000172562 0)
(-1.82332 -0.00025867 0)
(-1.81788 -0.000345007 0)
(-1.81127 -0.000431505 0)
(-1.80345 -0.000518079 0)
(-1.79439 -0.000604629 0)
(-1.78405 -0.000691049 0)
(-1.77241 -0.000777229 0)
(-1.75942 -0.00086305 0)
(-1.74507 -0.000948391 0)
(-1.72932 -0.00103312 0)
(-1.71214 -0.00111709 0)
(-1.69351 -0.00120015 0)
(-1.6734 -0.00128216 0)
(-1.65178 -0.00136298 0)
(-1.62865 -0.00144246 0)
(-1.60397 -0.0015205 0)
(-1.57774 -0.00159694 0)
(-1.54993 -0.00167166 0)
(-1.52054 -0.00174448 0)
(-1.48956 -0.00181522 0)
(-1.45697 -0.0018837 0)
(-1.42279 -0.00194976 0)
(-1.38701 -0.00201324 0)
(-1.34963 -0.00207405 0)
(-1.31067 -0.00213207 0)
(-1.27013 -0.00218722 0)
(-1.22803 -0.00223941 0)
(-1.18439 -0.00228856 0)
(-1.13922 -0.00233456 0)
(-1.09254 -0.00237733 0)
(-1.04439 -0.00241677 0)
(-0.9948 -0.00245282 0)
(-0.943797 -0.00248536 0)
(-0.891422 -0.00251439 0)
(-0.837718 -0.00253979 0)
(-0.78273 -0.00256162 0)
(-0.726507 -0.00257973 0)
(-0.6691 -0.00259428 0)
(-0.610568 -0.00260506 0)
(-0.550963 -0.00261237 0)
(-0.490353 -0.00261588 0)
(-0.428792 -0.00261613 0)
(-0.366358 -0.00261257 0)
(-0.3031 -0.00260608 0)
(-0.239109 -0.00259584 0)
(-0.17442 -0.00258317 0)
(-0.109147 -0.00256672 0)
(-0.0432952 -0.00254833 0)
(0.022973 -0.00252575 0)
(0.0896963 -0.00250197 0)
(0.156648 -0.00247327 0)
(0.223945 -0.0024449 0)
(0.291267 -0.00241057 0)
(0.358862 -0.00237902 0)
(0.426254 -0.00233925 0)
(0.493905 -0.00230592 0)
(0.561054 -0.00226011 0)
(0.628548 -0.00222716 0)
(0.695123 -0.00217418 0)
(0.762321 -0.00214524 0)
(0.827961 -0.00208224 0)
(0.894842 -0.00206302 0)
(0.959098 -0.00198424 0)
(1.02585 -0.0019848 0)
(1.08809 -0.00187894 0)
(1.15526 -0.00191693 0)
(1.21448 -0.00176231 0)
(1.28332 -0.00187031 0)
(1.33771 -0.00162557 0)
(1.41075 -0.00186402 0)
(1.45698 -0.00145063 0)
(1.53929 -0.00193464 0)
(1.57097 -0.00120301 0)
(1.67251 -0.00215554 0)
(1.67768 -0.000822976 0)
(1.81809 -0.00268969 0)
(1.77546 -0.000247936 0)
(1.99493 -0.00397084 0)
(1.87304 0.000544627 0)
(2.25505 -0.0100193 0)
(-2.1478 0.00251807 0)
(-2.16197 0.00237223 0)
(-2.17537 0.00222926 0)
(-2.188 0.00208861 0)
(-2.19985 0.00194975 0)
(-2.21089 0.00181224 0)
(-2.22111 0.00167573 0)
(-2.23049 0.00153986 0)
(-2.239 0.00140431 0)
(-2.24661 0.0012688 0)
(-2.25331 0.00113305 0)
(-2.25905 0.000996871 0)
(-2.26381 0.000860071 0)
(-2.26754 0.000722515 0)
(-2.27022 0.000584086 0)
(-2.27181 0.000444704 0)
(-2.27226 0.000304329 0)
(-2.27154 0.000163006 0)
(-2.2696 2.09968e-05 0)
(-2.2664 -0.000121279 0)
(-2.26193 -0.000263621 0)
(-2.25613 -0.000406164 0)
(-2.24897 -0.00054904 0)
(-2.2404 -0.000692211 0)
(-2.2304 -0.000835565 0)
(-2.21892 -0.000978957 0)
(-2.20592 -0.00112223 0)
(-2.19137 -0.0012652 0)
(-2.17522 -0.00140769 0)
(-2.15744 -0.00154951 0)
(-2.138 -0.00169047 0)
(-2.11687 -0.00183033 0)
(-2.094 -0.00196887 0)
(-2.06938 -0.00210585 0)
(-2.04298 -0.00224104 0)
(-2.01476 -0.00237419 0)
(-1.98471 -0.00250511 0)
(-1.95281 -0.00263358 0)
(-1.91904 -0.00275938 0)
(-1.88338 -0.00288228 0)
(-1.84582 -0.00300201 0)
(-1.80635 -0.00311828 0)
(-1.76496 -0.0032308 0)
(-1.72166 -0.00333929 0)
(-1.67645 -0.00344354 0)
(-1.62933 -0.00354335 0)
(-1.58032 -0.00363857 0)
(-1.52942 -0.00372906 0)
(-1.47665 -0.00381465 0)
(-1.42203 -0.00389522 0)
(-1.36558 -0.00397059 0)
(-1.30734 -0.00404064 0)
(-1.24733 -0.00410519 0)
(-1.18559 -0.00416413 0)
(-1.12215 -0.0042173 0)
(-1.05707 -0.00426466 0)
(-0.990384 -0.00430604 0)
(-0.922153 -0.0043415 0)
(-0.852432 -0.00437084 0)
(-0.781278 -0.00439427 0)
(-0.708757 -0.0044115 0)
(-0.634933 -0.00442294 0)
(-0.559881 -0.00442816 0)
(-0.483665 -0.00442787 0)
(-0.406374 -0.0044214 0)
(-0.328065 -0.0044099 0)
(-0.248844 -0.00439238 0)
(-0.16875 -0.00437051 0)
(-0.087917 -0.00434273 0)
(-0.00635194 -0.00431125 0)
(0.0757578 -0.00427324 0)
(0.158451 -0.00423244 0)
(0.241471 -0.00418435 0)
(0.324939 -0.0041356 0)
(0.4085 -0.00407847 0)
(0.492415 -0.00402393 0)
(0.576159 -0.0039583 0)
(0.660226 -0.00389994 0)
(0.743782 -0.00382528 0)
(0.827734 -0.00376607 0)
(0.910711 -0.00368133 0)
(0.994361 -0.00362618 0)
(1.07634 -0.00352812 0)
(1.15963 -0.0034845 0)
(1.24009 -0.00336628 0)
(1.32317 -0.00334723 0)
(1.40142 -0.00319509 0)
(1.48486 -0.00322309 0)
(1.5598 -0.00301036 0)
(1.64486 -0.00312672 0)
(1.71459 -0.00280214 0)
(1.80395 -0.00308329 0)
(1.86493 -0.00254928 0)
(1.9639 -0.00314084 0)
(2.0095 -0.00221125 0)
(2.12855 -0.00339666 0)
(2.14628 -0.00172003 0)
(2.30611 -0.00407266 0)
(2.27402 -0.00102518 0)
(2.51697 -0.00578505 0)
(2.40332 -0.000279152 0)
(2.82464 -0.0145336 0)
(-2.52115 0.00353023 0)
(-2.53517 0.00331285 0)
(-2.54827 0.00309965 0)
(-2.56046 0.0028898 0)
(-2.57171 0.00268256 0)
(-2.58201 0.00247733 0)
(-2.59133 0.00227358 0)
(-2.59966 0.00207082 0)
(-2.60696 0.00186859 0)
(-2.61321 0.0016665 0)
(-2.61837 0.00146417 0)
(-2.62242 0.00126131 0)
(-2.62532 0.00105768 0)
(-2.62703 0.000853094 0)
(-2.62751 0.000647376 0)
(-2.62672 0.000440379 0)
(-2.62462 0.000232023 0)
(-2.62116 2.25424e-05 0)
(-2.61632 -0.000187519 0)
(-2.61004 -0.000397669 0)
(-2.6023 -0.000607766 0)
(-2.59306 -0.000818004 0)
(-2.58227 -0.00102853 0)
(-2.5699 -0.00123927 0)
(-2.55589 -0.00145006 0)
(-2.54022 -0.00166067 0)
(-2.52285 -0.00187089 0)
(-2.50372 -0.00208046 0)
(-2.48282 -0.00228911 0)
(-2.46009 -0.00249656 0)
(-2.4355 -0.00270254 0)
(-2.40903 -0.00290673 0)
(-2.38064 -0.0031088 0)
(-2.3503 -0.00330841 0)
(-2.31798 -0.00350523 0)
(-2.28366 -0.00369893 0)
(-2.24731 -0.00388922 0)
(-2.20892 -0.00407579 0)
(-2.16847 -0.00425835 0)
(-2.12593 -0.00443655 0)
(-2.08131 -0.00461002 0)
(-2.03459 -0.00477835 0)
(-1.98576 -0.00494112 0)
(-1.93483 -0.00509798 0)
(-1.8818 -0.0052486 0)
(-1.82668 -0.00539274 0)
(-1.76948 -0.00553017 0)
(-1.7102 -0.0056607 0)
(-1.64888 -0.00578411 0)
(-1.58552 -0.0059002 0)
(-1.52015 -0.00600875 0)
(-1.4528 -0.00610957 0)
(-1.38351 -0.00620241 0)
(-1.31231 -0.00628712 0)
(-1.23923 -0.00636349 0)
(-1.16434 -0.00643144 0)
(-1.08767 -0.00649076 0)
(-1.00928 -0.0065415 0)
(-0.929225 -0.00658341 0)
(-0.847571 -0.00661674 0)
(-0.764384 -0.00664115 0)
(-0.679727 -0.00665712 0)
(-0.593679 -0.00666417 0)
(-0.506306 -0.00666312 0)
(-0.4177 -0.00665326 0)
(-0.327919 -0.00663591 0)
(-0.237073 -0.00661004 0)
(-0.145203 -0.00657755 0)
(-0.0524484 -0.00653679 0)
(0.0411829 -0.00649004 0)
(0.135495 -0.00643418 0)
(0.230525 -0.00637351 0)
(0.326008 -0.00630309 0)
(0.422062 -0.00623044 0)
(0.518323 -0.00614702 0)
(0.615049 -0.00606527 0)
(0.711705 -0.00596982 0)
(0.80878 -0.00588147 0)
(0.905431 -0.00577366 0)
(1.00256 -0.0056824 0)
(1.09878 -0.00556142 0)
(1.19574 -0.00547332 0)
(1.29107 -0.0053359 0)
(1.38776 -0.0052599 0)
(1.48166 -0.00509865 0)
(1.5782 -0.0050502 0)
(1.66994 -0.00484987 0)
(1.76684 -0.00485528 0)
(1.8553 -0.00458583 0)
(1.95379 -0.00469324 0)
(2.03704 -0.0042965 0)
(2.13973 -0.0045947 0)
(2.21429 -0.00395934 0)
(2.32639 -0.00461796 0)
(2.3857 -0.00353097 0)
(2.51757 -0.00488193 0)
(2.54938 -0.00294099 0)
(2.72146 -0.00566449 0)
(2.70436 -0.00216405 0)
(2.95847 -0.00776386 0)
(2.86211 -0.00160441 0)
(3.2965 -0.0191345 0)
(-2.80909 0.0045018 0)
(-2.82162 0.00420322 0)
(-2.83313 0.00391035 0)
(-2.84362 0.00362209 0)
(-2.85308 0.00333749 0)
(-2.86148 0.00305576 0)
(-2.86881 0.00277619 0)
(-2.87503 0.00249814 0)
(-2.88013 0.00222103 0)
(-2.88407 0.00194434 0)
(-2.88683 0.00166759 0)
(-2.88836 0.00139041 0)
(-2.88864 0.00111248 0)
(-2.88763 0.000833571 0)
(-2.88528 0.000553422 0)
(-2.88156 0.000271829 0)
(-2.87642 -1.10999e-05 0)
(-2.86983 -0.000294894 0)
(-2.86175 -0.000578964 0)
(-2.85215 -0.000862828 0)
(-2.84099 -0.0011464 0)
(-2.82822 -0.00142992 0)
(-2.8138 -0.00171348 0)
(-2.79769 -0.00199695 0)
(-2.77986 -0.00228012 0)
(-2.76026 -0.0025627 0)
(-2.73885 -0.00284438 0)
(-2.7156 -0.00312483 0)
(-2.69047 -0.00340371 0)
(-2.66342 -0.00368066 0)
(-2.63441 -0.00395531 0)
(-2.60343 -0.00422726 0)
(-2.57042 -0.00449607 0)
(-2.53538 -0.00476132 0)
(-2.49826 -0.00502257 0)
(-2.45905 -0.00527943 0)
(-2.41772 -0.0055315 0)
(-2.37426 -0.00577842 0)
(-2.32863 -0.00601978 0)
(-2.28084 -0.00625515 0)
(-2.23087 -0.00648405 0)
(-2.17871 -0.00670596 0)
(-2.12436 -0.00692035 0)
(-2.06781 -0.00712679 0)
(-2.00907 -0.00732488 0)
(-1.94815 -0.0075143 0)
(-1.88506 -0.00769478 0)
(-1.81981 -0.00786607 0)
(-1.75241 -0.00802791 0)
(-1.68289 -0.00818005 0)
(-1.61127 -0.00832221 0)
(-1.53758 -0.00845414 0)
(-1.46184 -0.00857556 0)
(-1.3841 -0.00868626 0)
(-1.3044 -0.00878598 0)
(-1.22277 -0.00887462 0)
(-1.13928 -0.00895193 0)
(-1.05396 -0.00901795 0)
(-0.966875 -0.00907242 0)
(-0.878088 -0.00911559 0)
(-0.787662 -0.00914711 0)
(-0.69566 -0.00916749 0)
(-0.602159 -0.00917626 0)
(-0.507222 -0.00917429 0)
(-0.410939 -0.0091609 0)
(-0.313366 -0.00913749 0)
(-0.214612 -0.00910313 0)
(-0.114716 -0.00905975 0)
(-0.0138133 -0.00900578 0)
(0.0880866 -0.0089434 0)
(0.19079 -0.00886947 0)
(0.294334 -0.00878853 0)
(0.398458 -0.00869552 0)
(0.503275 -0.00859836 0)
(0.608428 -0.0084883 0)
(0.714167 -0.00837845 0)
(0.819967 -0.00825279 0)
(0.926302 -0.00813317 0)
(1.03235 -0.00799177 0)
(1.13898 -0.00786662 0)
(1.24484 -0.00770912 0)
(1.35152 -0.00758539 0)
(1.45674 -0.00740872 0)
(1.56337 -0.00729637 0)
(1.66739 -0.00709317 0)
(1.77405 -0.00700931 0)
(1.87615 -0.00676383 0)
(1.98329 -0.00673721 0)
(2.08236 -0.0064179 0)
(2.19115 -0.00650105 0)
(2.28531 -0.00604624 0)
(2.39822 -0.0063358 0)
(2.48411 -0.0056267 0)
(2.60614 -0.00630794 0)
(2.67744 -0.00511629 0)
(2.8185 -0.00655433 0)
(2.86352 -0.0044482 0)
(3.0432 -0.00740201 0)
(3.04156 -0.00363263 0)
(3.29988 -0.00981905 0)
(3.22302 -0.00336399 0)
(3.65579 -0.0235726 0)
(-3.01468 0.00536159 0)
(-3.02523 0.00497697 0)
(-3.03473 0.00459973 0)
(-3.04316 0.00422853 0)
(-3.0505 0.00386219 0)
(-3.05673 0.00349971 0)
(-3.06184 0.00314023 0)
(-3.0658 0.00278295 0)
(-3.06858 0.00242716 0)
(-3.07015 0.0020722 0)
(-3.07048 0.0017175 0)
(-3.06955 0.00136262 0)
(-3.06731 0.00100715 0)
(-3.06372 0.00065079 0)
(-3.05875 0.00029321 0)
(-3.05236 -6.56411e-05 0)
(-3.04451 -0.000425477 0)
(-3.03517 -0.00078579 0)
(-3.0243 -0.00114598 0)
(-3.01186 -0.00150567 0)
(-2.99781 -0.00186484 0)
(-2.9821 -0.00222365 0)
(-2.96471 -0.00258214 0)
(-2.94558 -0.00294014 0)
(-2.92467 -0.00329735 0)
(-2.90196 -0.00365343 0)
(-2.8774 -0.00400801 0)
(-2.85094 -0.00436067 0)
(-2.82256 -0.00471101 0)
(-2.79223 -0.00505858 0)
(-2.75989 -0.00540292 0)
(-2.72553 -0.00574354 0)
(-2.68912 -0.00607994 0)
(-2.65062 -0.00641157 0)
(-2.61 -0.00673794 0)
(-2.56725 -0.00705855 0)
(-2.52234 -0.00737293 0)
(-2.47526 -0.00768064 0)
(-2.42597 -0.0079812 0)
(-2.37447 -0.00827406 0)
(-2.32076 -0.00855867 0)
(-2.26481 -0.00883438 0)
(-2.20662 -0.00910057 0)
(-2.1462 -0.00935672 0)
(-2.08354 -0.00960235 0)
(-2.01866 -0.00983711 0)
(-1.95156 -0.0100607 0)
(-1.88225 -0.0102727 0)
(-1.81075 -0.010473 0)
(-1.73708 -0.0106611 0)
(-1.66126 -0.0108368 0)
(-1.58331 -0.0109998 0)
(-1.50327 -0.0111497 0)
(-1.42117 -0.0112862 0)
(-1.33705 -0.0114092 0)
(-1.25096 -0.0115184 0)
(-1.16293 -0.0116136 0)
(-1.07301 -0.0116948 0)
(-0.981277 -0.0117617 0)
(-0.887768 -0.0118145 0)
(-0.792553 -0.0118531 0)
(-0.69569 -0.0118778 0)
(-0.597256 -0.0118882 0)
(-0.497309 -0.0118852 0)
(-0.395938 -0.0118682 0)
(-0.293196 -0.0118387 0)
(-0.189188 -0.0117958 0)
(-0.0839497 -0.0117415 0)
(0.022385 -0.0116744 0)
(0.129809 -0.0115964 0)
(0.238134 -0.0115045 0)
(0.347395 -0.0114033 0)
(0.457341 -0.0112879 0)
(0.568081 -0.0111662 0)
(0.679269 -0.0110298 0)
(0.791146 -0.0108917 0)
(0.903205 -0.0107361 0)
(1.0159 -0.010585 0)
(1.12844 -0.0104104 0)
(1.24166 -0.0102508 0)
(1.35427 -0.0100575 0)
(1.46778 -0.00989705 0)
(1.58 -0.00968235 0)
(1.69368 -0.00953166 0)
(1.80497 -0.00928864 0)
(1.91889 -0.0091658 0)
(2.02855 -0.00887909 0)
(2.14314 -0.0088141 0)
(2.2501 -0.00845221 0)
(2.36645 -0.00849974 0)
(2.46891 -0.00800048 0)
(2.58937 -0.00826093 0)
(2.6841 -0.00750367 0)
(2.81342 -0.0081703 0)
(2.89442 -0.00692197 0)
(3.04203 -0.00837877 0)
(3.09817 -0.00619718 0)
(3.28269 -0.00925515 0)
(3.2947 -0.00538303 0)
(3.55411 -0.011922 0)
(3.49509 -0.0054766 0)
(3.92088 -0.027802 0)
(-3.15684 0.00609844 0)
(-3.16557 0.00562598 0)
(-3.17323 0.00516261 0)
(-3.1798 0.00470674 0)
(-3.18526 0.00425694 0)
(-3.1896 0.00381206 0)
(-3.19279 0.00337103 0)
(-3.19481 0.00293292 0)
(-3.19563 0.00249688 0)
(-3.19522 0.00206212 0)
(-3.19356 0.001628 0)
(-3.1906 0.00119396 0)
(-3.18632 0.000759531 0)
(-3.18067 0.000324325 0)
(-3.17362 -0.000111881 0)
(-3.16513 -0.000549014 0)
(-3.15516 -0.00098673 0)
(-3.14369 -0.00142452 0)
(-3.13067 -0.00186188 0)
(-3.11606 -0.00229853 0)
(-3.09982 -0.00273443 0)
(-3.08191 -0.00316967 0)
(-3.06228 -0.0036042 0)
(-3.0409 -0.0040378 0)
(-3.01772 -0.00447012 0)
(-2.99272 -0.00490073 0)
(-2.96584 -0.00532921 0)
(-2.93705 -0.00575506 0)
(-2.90632 -0.00617781 0)
(-2.87361 -0.00659693 0)
(-2.83888 -0.00701187 0)
(-2.80211 -0.00742207 0)
(-2.76326 -0.00782692 0)
(-2.7223 -0.00822579 0)
(-2.67921 -0.0086181 0)
(-2.63396 -0.00900327 0)
(-2.58654 -0.00938077 0)
(-2.53691 -0.00975004 0)
(-2.48506 -0.0101106 0)
(-2.43098 -0.0104617 0)
(-2.37465 -0.0108027 0)
(-2.31606 -0.0111329 0)
(-2.25522 -0.0114515 0)
(-2.19211 -0.011758 0)
(-2.12675 -0.0120518 0)
(-2.05913 -0.0123325 0)
(-1.98927 -0.0125997 0)
(-1.91717 -0.0128531 0)
(-1.84284 -0.0130923 0)
(-1.76632 -0.0133169 0)
(-1.68761 -0.0135266 0)
(-1.60675 -0.0137211 0)
(-1.52376 -0.0138998 0)
(-1.43868 -0.0140627 0)
(-1.35153 -0.0142092 0)
(-1.26237 -0.0143393 0)
(-1.17124 -0.0144526 0)
(-1.07818 -0.0145492 0)
(-0.983254 -0.0146287 0)
(-0.88651 -0.0146915 0)
(-0.788012 -0.0147371 0)
(-0.687818 -0.0147662 0)
(-0.585999 -0.0147784 0)
(-0.482614 -0.0147744 0)
(-0.377747 -0.0147539 0)
(-0.271451 -0.0147182 0)
(-0.163827 -0.0146668 0)
(-0.0549094 -0.0146016 0)
(0.0551725 -0.0145211 0)
(0.16641 -0.0144274 0)
(0.278623 -0.0143175 0)
(0.391844 -0.0141959 0)
(0.50583 -0.0140579 0)
(0.620686 -0.0139114 0)
(0.73608 -0.0137484 0)
(0.85224 -0.0135817 0)
(0.968682 -0.0133962 0)
(1.08584 -0.013213 0)
(1.20295 -0.0130053 0)
(1.32082 -0.0128105 0)
(1.4382 -0.0125816 0)
(1.55656 -0.0123834 0)
(1.67377 -0.0121313 0)
(1.79249 -0.0119406 0)
(1.90902 -0.0116591 0)
(2.02817 -0.0114946 0)
(2.14334 -0.0111693 0)
(2.26332 -0.0110613 0)
(2.3761 -0.010662 0)
(2.49796 -0.0106658 0)
(2.60663 -0.010132 0)
(2.73261 -0.0103485 0)
(2.83409 -0.00956195 0)
(2.96872 -0.0101867 0)
(3.05729 -0.00891748 0)
(3.20958 -0.0103422 0)
(3.27465 -0.00815283 0)
(3.46234 -0.0112195 0)
(3.48562 -0.00737109 0)
(3.74478 -0.014082 0)
(3.70079 -0.00787474 0)
(4.11855 -0.0318696 0)
(-3.25521 0.00672944 0)
(-3.26245 0.00616842 0)
(-3.26862 0.00561816 0)
(-3.27369 0.00507679 0)
(-3.27765 0.00454268 0)
(-3.28048 0.00401448 0)
(-3.28216 0.00349097 0)
(-3.28266 0.00297108 0)
(-3.28195 0.0024538 0)
(-3.28001 0.00193825 0)
(-3.27681 0.00142367 0)
(-3.2723 0.000909426 0)
(-3.26646 0.000394974 0)
(-3.25924 -0.00012005 0)
(-3.25061 -0.000635776 0)
(-3.24055 -0.00115206 0)
(-3.229 -0.00166855 0)
(-3.21593 -0.00218482 0)
(-3.20131 -0.00270048 0)
(-3.18509 -0.00321526 0)
(-3.16722 -0.00372907 0)
(-3.14767 -0.00424192 0)
(-3.1264 -0.00475369 0)
(-3.10337 -0.00526409 0)
(-3.07853 -0.0057727 0)
(-3.05184 -0.00627905 0)
(-3.02327 -0.00678262 0)
(-2.99279 -0.00728287 0)
(-2.96035 -0.00777922 0)
(-2.92591 -0.00827108 0)
(-2.88945 -0.00875781 0)
(-2.85093 -0.00923876 0)
(-2.81032 -0.00971323 0)
(-2.76759 -0.0101805 0)
(-2.72271 -0.0106399 0)
(-2.67566 -0.0110908 0)
(-2.62642 -0.0115325 0)
(-2.57496 -0.0119644 0)
(-2.52127 -0.012386 0)
(-2.46533 -0.0127964 0)
(-2.40713 -0.0131949 0)
(-2.34666 -0.0135806 0)
(-2.2839 -0.0139527 0)
(-2.21888 -0.0143105 0)
(-2.15157 -0.0146534 0)
(-2.08199 -0.0149809 0)
(-2.01014 -0.0152926 0)
(-1.93604 -0.0155881 0)
(-1.85969 -0.015867 0)
(-1.78112 -0.0161288 0)
(-1.70035 -0.0163733 0)
(-1.61739 -0.0165998 0)
(-1.53228 -0.0168081 0)
(-1.44505 -0.0169977 0)
(-1.35574 -0.0171684 0)
(-1.26437 -0.0173198 0)
(-1.17101 -0.0174517 0)
(-1.07569 -0.017564 0)
(-0.978468 -0.0176566 0)
(-0.879395 -0.0177295 0)
(-0.778532 -0.0177826 0)
(-0.675935 -0.0178162 0)
(-0.571675 -0.0178302 0)
(-0.465809 -0.0178254 0)
(-0.358418 -0.0178014 0)
(-0.249554 -0.0177596 0)
(-0.139315 -0.0176997 0)
(-0.0277347 -0.0176233 0)
(0.0850604 -0.0175296 0)
(0.199061 -0.0174199 0)
(0.314093 -0.0172918 0)
(0.430186 -0.0171495 0)
(0.547108 -0.0169887 0)
(0.664955 -0.016817 0)
(0.783409 -0.0166272 0)
(0.902688 -0.0164315 0)
(1.02233 -0.0162157 0)
(1.14274 -0.0159999 0)
(1.2632 -0.0157589 0)
(1.38446 -0.0155282 0)
(1.50535 -0.0152636 0)
(1.62725 -0.0150267 0)
(1.74815 -0.0147372 0)
(1.87057 -0.0145053 0)
(1.99098 -0.0141859 0)
(2.11399 -0.0139778 0)
(2.23325 -0.0136154 0)
(2.35723 -0.0134612 0)
(2.47437 -0.0130277 0)
(2.60032 -0.012982 0)
(2.7137 -0.0124202 0)
(2.84378 -0.0125827 0)
(2.95043 -0.0117796 0)
(3.08899 -0.0123436 0)
(3.18345 -0.0110783 0)
(3.33913 -0.0124354 0)
(3.41129 -0.0102858 0)
(3.60109 -0.0132937 0)
(3.63348 -0.00955865 0)
(3.89184 -0.0163118 0)
(3.86017 -0.0105045 0)
(4.27027 -0.0358295 0)
(-3.32426 0.00727579 0)
(-3.33033 0.00662562 0)
(-3.33532 0.00598777 0)
(-3.33922 0.00536015 0)
(-3.34202 0.00474092 0)
(-3.34368 0.00412855 0)
(-3.34419 0.00352166 0)
(-3.34352 0.00291902 0)
(-3.34164 0.0023195 0)
(-3.33852 0.00172212 0)
(-3.33414 0.00112601 0)
(-3.32845 0.000530457 0)
(-3.32142 -6.51003e-05 0)
(-3.31301 -0.000660974 0)
(-3.3032 -0.00125723 0)
(-3.29193 -0.00185371 0)
(-3.27919 -0.00245012 0)
(-3.26492 -0.00304613 0)
(-3.24909 -0.00364138 0)
(-3.23165 -0.0042356 0)
(-3.21257 -0.00482865 0)
(-3.19179 -0.00542045 0)
(-3.16928 -0.0060108 0)
(-3.145 -0.00659934 0)
(-3.11891 -0.0071856 0)
(-3.09097 -0.00776904 0)
(-3.06114 -0.00834907 0)
(-3.02939 -0.00892506 0)
(-2.99566 -0.00949636 0)
(-2.95994 -0.0100623 0)
(-2.92218 -0.0106222 0)
(-2.88236 -0.0111752 0)
(-2.84043 -0.0117206 0)
(-2.79638 -0.0122576 0)
(-2.75017 -0.0127853 0)
(-2.70178 -0.0133032 0)
(-2.65119 -0.0138104 0)
(-2.59837 -0.0143062 0)
(-2.5433 -0.01479 0)
(-2.48597 -0.0152609 0)
(-2.42637 -0.015718 0)
(-2.36449 -0.0161603 0)
(-2.30031 -0.0165869 0)
(-2.23384 -0.0169971 0)
(-2.16508 -0.0173901 0)
(-2.09403 -0.0177654 0)
(-2.0207 -0.0181225 0)
(-1.9451 -0.018461 0)
(-1.86724 -0.0187804 0)
(-1.78714 -0.0190803 0)
(-1.70481 -0.0193602 0)
(-1.62028 -0.0196196 0)
(-1.53358 -0.019858 0)
(-1.44474 -0.0200751 0)
(-1.35379 -0.0202704 0)
(-1.26077 -0.0204436 0)
(-1.16573 -0.0205946 0)
(-1.06871 -0.0207231 0)
(-0.969757 -0.0208289 0)
(-0.868928 -0.0209124 0)
(-0.766281 -0.020973 0)
(-0.661872 -0.0210115 0)
(-0.555769 -0.0210276 0)
(-0.448028 -0.021022 0)
(-0.33873 -0.0209946 0)
(-0.227925 -0.0209467 0)
(-0.115708 -0.0208782 0)
(-0.0021128 -0.0207907 0)
(0.112736 -0.0206834 0)
(0.228829 -0.0205576 0)
(0.345997 -0.0204112 0)
(0.464267 -0.0202479 0)
(0.583414 -0.0200641 0)
(0.703529 -0.0198669 0)
(0.824305 -0.0196499 0)
(0.94595 -0.0194248 0)
(1.06802 -0.0191784 0)
(1.1909 -0.0189294 0)
(1.3139 -0.0186548 0)
(1.43775 -0.0183877 0)
(1.56131 -0.0180871 0)
(1.68591 -0.0178107 0)
(1.80962 -0.0174838 0)
(1.93486 -0.0172096 0)
(2.05823 -0.0168525 0)
(2.18417 -0.0165992 0)
(2.30658 -0.0162006 0)
(2.4336 -0.0159979 0)
(2.55411 -0.0155322 0)
(2.68317 -0.0154332 0)
(2.8002 -0.0148477 0)
(2.93338 -0.014949 0)
(3.04409 -0.0141382 0)
(3.1856 -0.0146282 0)
(3.28473 -0.013384 0)
(3.44291 -0.0146488 0)
(3.52076 -0.0125722 0)
(3.71196 -0.0154739 0)
(3.75176 -0.0119154 0)
(4.00906 -0.0186189 0)
(3.98751 -0.0133253 0)
(4.39065 -0.0397239 0)
(-3.37348 0.00775508 0)
(-3.37862 0.00701498 0)
(-3.3827 0.00628871 0)
(-3.38568 0.00557393 0)
(-3.38756 0.00486862 0)
(-3.38831 0.00417105 0)
(-3.38791 0.0034797 0)
(-3.38632 0.00279321 0)
(-3.38353 0.00211032 0)
(-3.3795 0.00142992 0)
(-3.37419 0.000751063 0)
(-3.36759 7.2974e-05 0)
(-3.35964 -0.000604884 0)
(-3.35031 -0.00128278 0)
(-3.33958 -0.00196077 0)
(-3.32739 -0.00263874 0)
(-3.31372 -0.00331645 0)
(-3.29852 -0.00399361 0)
(-3.28175 -0.0046699 0)
(-3.26337 -0.00534501 0)
(-3.24334 -0.00601876 0)
(-3.22162 -0.00669096 0)
(-3.19816 -0.00736135 0)
(-3.17292 -0.00802951 0)
(-3.14587 -0.00869489 0)
(-3.11696 -0.00935689 0)
(-3.08615 -0.0100148 0)
(-3.05341 -0.010668 0)
(-3.0187 -0.0113158 0)
(-2.98198 -0.0119572 0)
(-2.94322 -0.0125917 0)
(-2.90239 -0.0132182 0)
(-2.85945 -0.013836 0)
(-2.81438 -0.014444 0)
(-2.76714 -0.0150416 0)
(-2.71771 -0.0156277 0)
(-2.66607 -0.0162017 0)
(-2.61219 -0.0167628 0)
(-2.55606 -0.0173101 0)
(-2.49766 -0.0178427 0)
(-2.43697 -0.0183596 0)
(-2.374 -0.0188597 0)
(-2.30872 -0.019342 0)
(-2.24113 -0.0198056 0)
(-2.17124 -0.0202498 0)
(-2.09906 -0.0206739 0)
(-2.02458 -0.0210774 0)
(-1.94781 -0.0214599 0)
(-1.86877 -0.0218207 0)
(-1.78747 -0.0221595 0)
(-1.70394 -0.0224756 0)
(-1.61819 -0.0227686 0)
(-1.53024 -0.0230379 0)
(-1.44014 -0.023283 0)