/*--------------------------------*- C++ -*----------------------------------*    | =========                 |                                                 |
    | \      /  F ield         | OpenFOAM: The Open Source CFD Toolbox           |
    |  \    /   O peration     | Version:  v2006                                 |
    |   \  /    A nd           | Website:  www.openfoam.com                      |
    |    \/     M anipulation  |                                                 |
    \*---------------------------------------------------------------------------*/
    FoamFile
    {
        version     2.0;
        format      ascii;
        class       volScalarField;
        object      k;
    }
    // * * * * * * * * * * * * * * * * * * * * * * * * * * * * * * * * * * * * * //
    
    dimensions      [0 2 -2 0 0 0 0];
    
    internalField   nonuniform List<scalar>
72100
(
0.0010189617
0.10303517
0.09990675
0.098205276
0.09751048
0.09720837
0.08364727
0.063401744
0.050073206
0.040811103
0.034209047
0.097273946
0.09690039
0.06016144
0.041324027
0.031291224
0.09631395
0.059256054
0.03882774
0.09724413
0.0703997
0.040307816
0.0973499
0.06222986
0.0361752
0.0981353
0.044642612
0.09836374
0.055369742
0.030305719
0.06368667
0.032185577
0.065924086
0.031688828
0.061105777
0.02970553
0.05197353
0.092111394
0.041852605
0.08424073
0.0010189617
0.3096751
0.30005673
0.29485545
0.29296264
0.2917757
0.2897536
0.28861925
0.28903446
0.29097313
0.2676983
0.29240528
0.29051054
0.28840905
0.28811744
0.24811964
0.28974572
0.29081908
0.29155502
0.2923704
0.29338735
0.29277286
0.29272336
0.29366544
0.2796387
0.29505387
0.2958636
0.29560706
0.29407352
0.24386704
0.29216072
0.2525649
0.29021284
0.24939938
0.27174383
0.2368375
0.26614356
0.2841718
0.25928766
0.27132735
0.0010189617
0.63266903
0.6142429
0.60407996
0.6005111
0.5982007
0.59433687
0.5925112
0.59368426
0.5973528
0.5998665
0.5996757
0.59574366
0.59151757
0.59123015
0.59247553
0.59410673
0.5960626
0.5974416
0.59872603
0.6010136
0.599429
0.5993824
0.6010453
0.60292804
0.60380036
0.6055692
0.6046524
0.6011321
0.598714
0.59743434
0.59579194
0.59321797
0.5929284
0.59385246
0.5924137
0.58981633
0.5884678
0.5876975
0.5763586
1.22077
1.1099522
1.0823671
1.0665725
1.061186
1.0579208
1.0525637
1.0505913
1.0525988
1.0577992
1.0611945
1.0610721
1.0553436
1.0481743
1.0476842
1.0492258
1.05134
1.0535351
1.0553254
1.057026
1.0612793
1.0592393
1.058457
1.0601681
1.063376
1.0651598
1.0684109
1.0663536
1.0606339
1.056769
1.0544803
1.0512774
1.0470389
1.0466344
1.0476582
1.0451524
1.0416315
1.0398767
1.0388731
1.0216558
1.5946699
1.5829631
1.5504158
1.531276
1.525244
1.5218717
1.5158626
1.5149783
1.5184602
1.5246855
1.5277481
1.5278009
1.5216078
1.5122619
1.5113614
1.5127287
1.5148011
1.5164242
1.5179346
1.5197856
1.5262132
1.524743
1.5231652
1.5240101
1.5282401
1.5314723
1.5365325
1.533524
1.5268313
1.522473
1.5196348
1.5151235
1.509681
1.5096452
1.5109146
1.5079061
1.504997
1.5046976
1.5049468
1.485083
1.9433719
1.9766246
1.9434537
1.9238037
1.9188241
1.9164561
1.9104475
1.911578
1.9172544
1.9240303
1.9260134
1.9264684
1.9210289
1.910997
1.9093789
1.9102027
1.9119617
1.9125087
1.9129423
1.9150002
1.9239017
1.9237162
1.921925
1.9213296
1.9260126
1.9314376
1.9384134
1.9351523
1.9296113
1.9262736
1.9237579
1.918988
1.9134188
1.9146185
1.9169337
1.9145466
1.9140323
1.917391
1.921135
1.9027435
2.2352333
2.263385
2.2319927
2.2136738
2.210818
2.210234
2.2047415
2.2079117
2.2159169
2.2234066
2.2244296
2.2255635
2.2214909
2.212406
2.2099857
2.2100947
2.211764
2.2112281
2.2098165
2.212081
2.223284
2.2247486
2.2236378
2.221963
2.2266042
2.2344143
2.2433612
2.240616
2.2380354
2.2368522
2.2355893
2.231735
2.2271886
2.2306192
2.2350802
2.2346745
2.2373521
2.2460272
2.2549922
2.241512
2.4474223
2.4479914
2.4191654
2.4029226
2.4023051
2.403759
2.39935
2.4042783
2.4142756
2.4226742
2.4235685
2.4254131
2.4229207
2.4159992
2.4132972
2.41286
2.4148197
2.4134364
2.4095645
2.4117622
2.4247007
2.4277103
2.4282272
2.426587
2.4312527
2.4409945
2.4516418
2.4500184
2.4512582
2.4527674
2.4533834
2.4514797
2.448703
2.4553618
2.4629095
2.4657843
2.471904
2.4866164
2.5020237
2.4950147
2.574284
2.5514858
2.5251205
2.5109236
2.5118957
2.5152097
2.5124514
2.518885
2.5304072
2.5397136
2.541553
2.5438457
2.5429869
2.5388453
2.5368178
2.5361795
2.538655
2.5367725
2.5304348
2.5319068
2.5457313
2.5497742
2.5529222
2.5525959
2.5576813
2.5686958
2.580492
2.5803611
2.5854566
2.5895517
2.5923355
2.5930445
2.5923548
2.6029248
2.6141496
2.6212451
2.6308105
2.6514378
2.6731508
2.6735466
2.6241393
2.5914857
2.5670812
2.5544372
2.5559564
2.5607076
2.560104
2.5677423
2.5802894
2.5904768
2.5939672
2.5963707
2.5972106
2.596033
2.5952907
2.5948808
2.5980723
2.5959473
2.587662
2.5878966
2.6016028
2.6064687
2.6127608
2.6148796
2.6205904
2.6320598
2.6445124
2.6459067
2.654516
2.6603773
2.6657007
2.668807
2.6705263
2.6846063
2.7004
2.7116451
2.7249413
2.750319
2.778035
2.7857876
2.6248045
2.5923424
2.5693638
2.5577767
2.5589712
2.5645452
2.5662067
2.5748715
2.5883012
2.5994043
2.6047475
2.6071894
2.609216
2.6110277
2.6121933
2.6122794
2.6164014
2.6144974
2.604822
2.603558
2.6164246
2.6220837
2.6314495
2.6365588
2.6429791
2.6541216
2.667028
2.6697273
2.6809862
2.6885405
2.6961076
2.7018142
2.7054548
2.7229114
2.7428558
2.758801
2.775238
2.8043096
2.8373365
2.8506236
2.5884051
2.5665112
2.5446079
2.533543
2.5338671
2.53992
2.5437891
2.5528603
2.5669658
2.578945
2.5858967
2.588626
2.5916653
2.596146
2.5992124
2.5999513
2.6055055
2.6041002
2.593895
2.5909617
2.6024632
2.608844
2.6211598
2.629295
2.6362138
2.646277
2.6593964
2.6632571
2.6763668
2.685393
2.695329
2.7031348
2.7087638
2.7283168
2.7526515
2.7729387
2.792093
2.8236809
2.8603978
2.87894
2.5554748
2.5253813
2.5043545
2.4934666
2.492816
2.4989653
2.504705
2.5139222
2.5283005
2.5412443
2.549403
2.5526838
2.5564346
2.5630083
2.5683377
2.5697808
2.5768209
2.5765529
2.5664177
2.561992
2.5720806
2.5789242
2.5936418
2.6042106
2.611804
2.6205463
2.6333702
2.638392
2.6525009
2.6631985
2.6750917
2.6851702
2.6925092
2.7134995
2.7410004
2.7663252
2.7875206
2.8207936
2.8599856
2.8823652
2.5158277
2.4746487
2.454269
2.4434195
2.442004
2.4481215
2.455525
2.4642484
2.478333
2.4922824
2.501204
2.5052195
2.5097435
2.5178819
2.5253887
2.527189
2.5355687
2.5370495
2.5277424
2.5222595
2.5309248
2.5381413
2.5542023
2.566742
2.5745885
2.5819798
2.594492
2.6005075
2.615025
2.627246
2.641143
2.6531665
2.6620693
2.683672
2.713872
2.7433238
2.7663157
2.8003514
2.841086
2.8662481
2.428414
2.4183493
2.3984673
2.3878376
2.3860137
2.3919353
2.4007642
2.40891
2.421979
2.4367201
2.4464478
2.4513893
2.4567113
2.4658353
2.4752455
2.4773037
2.486686
2.4903529
2.4825087
2.4766116
2.4840796
2.4911659
2.5078447
2.5216556
2.529847
2.535944
2.548173
2.5552416
2.569543
2.5830758
2.5990734
2.6127167
2.623021
2.644899
2.6770256
2.7100651
2.734963
2.769446
2.8105316
2.8379838
2.3843524
2.3600376
2.3405542
2.3306777
2.3288136
2.334287
2.3440776
2.352169
2.3637123
2.378813
2.389603
2.3953843
2.4013777
2.4109733
2.42196
2.424295
2.4341874
2.4397695
2.434082
2.4288442
2.4353726
2.4418316
2.4582906
2.47263
2.481342
2.4865243
2.498682
2.5068188
2.5203998
2.5347986
2.552775
2.5678773
2.5791173
2.6013644
2.6342537
2.6705108
2.6974683
2.7323673
2.773039
2.8018909
2.3409226
2.3014987
2.2824728
2.274116
2.2725089
2.2773118
2.2874527
2.2958078
2.3060446
2.3213441
2.3332212
2.3394554
2.345761
2.3557086
2.3679457
2.37062
2.3804917
2.3874402
2.3843727
2.3806674
2.3864303
2.3918443
2.4075046
2.4219608
2.4310882
2.4358075
2.44856
2.457602
2.4698198
2.4846382
2.504754
2.5206034
2.532421
2.5551152
2.5881152
2.6265533
2.6559865
2.6911647
2.731045
2.7603524
2.2574694
2.2438512
2.2255752
2.219257
2.2179322
2.2219386
2.2318501
2.2407155
2.2503464
2.265601
2.2784452
2.2848072
2.2909355
2.3010876
2.3143153
2.3178768
2.327455
2.3348768
2.3339667
2.3326871
2.337869
2.342406
2.3568513
2.3711734
2.380534
2.3851082
2.3987901
2.4089391
2.4194763
2.4341686
2.4565318
2.472416
2.4846296
2.5078523
2.5402915
2.5798311
2.6120095
2.6476028
2.6866229
2.7157748
2.217865
2.1879919
2.1708906
2.1665373
2.1654818
2.1687741
2.1778476
2.1873426
2.197089
2.2121966
2.22581
2.2321177
2.2376802
2.2476974
2.2616856
2.2667606
2.2761443
2.2832744
2.2840178
2.285168
2.2902045
2.2941082
2.3073375
2.3213208
2.3306494
2.335408
2.3499062
2.3613849
2.3706508
2.384701
2.4088027
2.4245334
2.4368513
2.460742
2.4924438
2.5317717
2.5664055
2.6029272
2.6411822
2.6700149
2.179956
2.1353478
2.1197972
2.1169326
2.1159022
2.1185057
2.126258
2.136842
2.1470597
2.1619172
2.1759474
2.1822689
2.187104
2.1964753
2.2110999
2.2179592
2.2274475
2.2339826
2.2358458
2.2388
2.2440438
2.2475083
2.2597487
2.2733986
2.282493
2.287678
2.3030581
2.3156257
2.3238304
2.3374248
2.3626275
2.3780904
2.390519
2.4146693
2.4450529
2.4833512
2.5203664
2.557715
2.5953815
2.624428
2.1098938
2.0857463
2.0717266
2.0697365
2.0686684
2.0706732
2.0769162
2.0884073
2.09974
2.1140254
2.1280487
2.1345594
2.1389885
2.1475961
2.1619825
2.1709123
2.1807144
2.1867247
2.189146
2.1938326
2.1995928
2.2027357
2.2136924
2.227379
2.2360544
2.2418714
2.257534
2.2714324
2.2793107
2.2921007
2.3175786
2.3332734
2.3458061
2.3699105
2.398979
2.4353063
2.4736884
2.5123346
2.5497043
2.5795212
2.0776768
2.0398455
2.0270853
2.0252903
2.0242143
2.025816
2.0305421
2.0425973
2.0554333
2.0686517
2.0823195
2.0890646
2.093683
2.101667
2.115483
2.1259665
2.1360006
2.1417408
2.1448975
2.1510231
2.1575572
2.1600769
2.1694329
2.1837163
2.1921506
2.1986125
2.214282
2.2291453
2.2371964
2.2491055
2.274014
2.2905111
2.3034048
2.3269928
2.3544178
2.3884008
2.4274666
2.4670222
2.5049262
2.5357614
2.01852
1.9972887
1.9853822
1.9832916
1.9821593
1.9836907
1.9871511
1.9991415
2.0134847
2.0257246
2.03851
2.0455365
2.0507443
2.0584548
2.071444
2.0828316
2.0928984
2.098677
2.1025047
2.110382
2.117825
2.1199777
2.127025
2.1422815
2.150812
2.1578832
2.1732829
2.1886635
2.1971235
2.2083554
2.2319047
2.2493489
2.2630486
2.2859187
2.311566
2.3429441
2.3817513
2.4219298
2.4609993
2.493282
1.9908803
1.9579136
1.9462274
1.9434971
1.9423406
1.9441907
1.9472327
1.9582392
1.9735128
1.9851632
1.9969538
2.0042815
2.0099704
2.0178075
2.0300515
2.0415053
2.051428
2.0573916
2.062084
2.0717068
2.0801523
2.0820298
2.0870795
2.103018
2.112123
2.1194284
2.1345713
2.1499553
2.1588752
2.1697166
2.1915915
2.209782
2.224498
2.2463896
2.2706053
2.2992432
2.3370879
2.3774192
2.4182045
2.4517689
1.9396706
1.921747
1.9094248
1.9057056
1.9048636
1.9074498
1.9106259
1.920418
1.935616
1.9471288
1.9581387
1.9657803
1.97168
1.9798553
1.9915613
2.002338
2.0118086
2.0180957
2.0235727
2.0350144
2.044499
2.0461085
2.0498984
2.0664003
2.0759954
2.0832922
2.098012
2.113142
2.1225438
2.1331728
2.1532092
2.1717992
2.187807
2.2084734
2.2311106
2.2576184
2.2940085
2.334077
2.376323
2.4111037
1.916106
1.8881494
1.8746144
1.8696716
1.8694242
1.8730271
1.8768338
1.8853266
1.8995882
1.9112514
1.9219111
1.929713
1.9356209
1.9444084
1.9559114
1.965526
1.9742204
1.9804088
1.986727
1.9999833
2.010518
2.0118115
2.0151186
2.0315568
2.0417886
2.0488992
2.0630994
2.0778475
2.0875611
2.098161
2.1168716
2.1352756
2.1526244
2.17208
2.1934857
2.2177784
2.252917
2.2921553
2.3347895
2.3706534
1.8937031
1.857076
1.8421999
1.8360257
1.8362976
1.8412343
1.8456826
1.8526824
1.8656061
1.8776332
1.8884676
1.8962206
1.9022124
1.9120679
1.9233603
1.9318839
1.9393218
1.945282
1.9521836
1.9667243
1.9783194
1.979504
1.9829056
1.9989197
2.0094743
2.0162082
2.0295367
2.0439699
2.054017
2.064732
2.0824437
2.1003454
2.1189873
2.1375554
2.1574988
2.1796985
2.2137804
2.2521365
2.2939918
2.3305178
1.8518299
1.8279824
1.8117578
1.804759
1.8052964
1.8115726
1.8164876
1.8222907
1.8336457
1.8456404
1.8571342
1.864904
1.8710046
1.8821254
1.8936641
1.9012046
1.9070491
1.9127333
1.9198129
1.9350064
1.94765
1.948969
1.9527518
1.9679108
1.9787086
1.9848709
1.997294
2.0111856
2.0215886
2.0326023
2.049858
2.0667377
2.0863044
2.10454
2.1232982
2.143167
2.1763313
2.2139225
2.2542722
2.2910311
1.8320957
1.8006164
1.7830101
1.7756292
1.7761654
1.7835097
1.7888098
1.794026
1.8037548
1.815287
1.827411
1.8355345
1.8415282
1.8537922
1.8659643
1.8728677
1.8773271
1.8826388
1.8895385
1.9044983
1.9180993
1.9200317
1.9243143
1.9384385
1.9491023
1.9547673
1.9660542
1.979199
1.9899584
2.0013292
2.0187213
2.0343797
2.0540485
2.072357
2.090542
2.1081133
2.1400504
2.1772335
2.2158163
2.2522402
1.8130848
1.7754314
1.7566825
1.7490013
1.7494646
1.7573208
1.7628672
1.767891
1.7764825
1.7872158
1.7996315
1.8086435
1.8143181
1.8272582
1.8400515
1.8468909
1.850246
1.8555884
1.8618745
1.8757457
1.8902256
1.8930926
1.8980097
1.9109362
1.9210625
1.9263935
1.9362427
1.9484854
1.959498
1.971282
1.9892099
2.0037947
2.0227554
2.0411313
2.0592015
2.0754595
2.1056335
2.1424134
2.1790035
2.2148879
1.776801
1.7519621
1.7326306
1.7245375
1.7246789
1.7323582
1.7382123
1.7434124
1.7513757
1.7610376
1.7732297
1.7836928
1.7890416
1.801795
1.8149221
1.8223232
1.8251892
1.8304585
1.8364568
1.8485895
1.8634336
1.8674546
1.8731983
1.8850954
1.8943273
1.8996916
1.9085048
1.9192467
1.9301883
1.9423795
1.9609357
1.9747291
1.9922993
2.0105934
2.0290399
2.0449195
2.073305
2.109315
2.144113
2.178909
1.7597735
1.7299405
1.7106495
1.7021825
1.7016443
1.7085662
1.7145683
1.7201542
1.7277434
1.7362999
1.7478281
1.7601613
1.7655249
1.7772471
1.7901679
1.7984587
1.801626
1.8065503
1.8125942
1.8230582
1.8374316
1.842958
1.8494931
1.8606598
1.8687841
1.8743736
1.8825531
1.8916755
1.9021975
1.914503
1.9334297
1.9469187
1.9628487
1.9805915
1.9996529
2.016147
2.0429914
2.0779364
2.1109025
2.1442566
1.743303
1.709727
1.6908872
1.6824634
1.6810136
1.6868612
1.6926205
1.698324
1.705501
1.7131729
1.7239642
1.7379147
1.743646
1.7540612
1.7664548
1.7757013
1.7797234
1.7842027
1.7904
1.7999731
1.8134394
1.8204445
1.8274926
1.8379507
1.8453565
1.8511308
1.8588353
1.8666254
1.8763736
1.8882838
1.9070972
1.9207597
1.9349658
1.9520283
1.9719596
1.989539
2.0149124
2.0490701
2.0801868
2.112041
1.7272924
1.6904292
1.6721472
1.6641388
1.6620724
1.6668153
1.6717703
1.6773492
1.683964
1.6911275
1.701189
1.7162343
1.7223519
1.7316655
1.7434646
1.7536699
1.7589188
1.7629429
1.7691672
1.7783082
1.7909176
1.7990884
1.806655
1.8163394
1.8234814
1.829279
1.836619
1.8431288
1.8519962
1.8631507
1.8813058
1.8955072
1.9083552
1.9246136
1.9452837
1.9642452
1.988273
2.021644
2.051467
2.0817018
1.696644
1.6719098
1.6543401
1.6467313
1.6447983
1.6485171
1.6524433
1.6576219
1.6636757
1.6704807
1.6800604
1.6956661
1.7018996
1.7104378
1.721614
1.7327799
1.7393438
1.7431504
1.7491013
1.7579687
1.7700652
1.7787687
1.786814
1.795834
1.8029884
1.8087909
1.8157387
1.8209714
1.8292307
1.8394744
1.8565608
1.8711631
1.8836105
1.8990328
1.9199693
1.9402541
1.9633503
1.9955093
2.024515
2.0532606
1.6819556
1.6540668
1.6372733
1.6299949
1.628773
1.6316886
1.6348977
1.6393573
1.644766
1.6513228
1.6604978
1.6763409
1.6825464
1.6906501
1.7011495
1.7128079
1.7206458
1.7245835
1.7301537
1.7387277
1.7506529
1.7590259
1.7673215
1.7760569
1.783336
1.7893593
1.7958153
1.7997526
1.8077599
1.817358
1.8331561
1.8475217
1.8604282
1.8754289
1.8962405
1.9172256
1.9395912
1.9702481
1.9985101
2.0261734
1.6680689
1.6372503
1.6207733
1.6141613
1.613621
1.6159664
1.6189908
1.6227859
1.6273218
1.6337553
1.642377
1.6580379
1.6643273
1.6724689
1.6822667
1.6935842
1.7023786
1.706895
1.7122878
1.7205468
1.7323781
1.7396873
1.7478791
1.756647
1.764168
1.7706754
1.7768935
1.779679
1.7874854
1.7969657
1.8112668
1.8245984
1.8381529
1.8536277
1.8743407
1.895082
1.9166899
1.9457579
1.9729662
1.9999306
1.6549283
1.6220381
1.6051327
1.5995753
1.599271
1.6009802
1.6044849
1.6080692
1.6116383
1.6180998
1.6259558
1.6407734
1.6472292
1.6560045
1.6651987
1.6754938
1.6847098
1.6900206
1.6956865
1.7036983
1.7153543
1.7212946
1.7290488
1.7377383
1.7455992
1.7527153
1.7591828
1.7611758
1.7687649
1.7786413
1.7914103
1.8032054
1.8169774
1.8334963
1.8544548
1.874177
1.8946532
1.9219841
1.9479771
1.9745382
1.6422096
1.607873
1.5902679
1.5856742
1.5851928
1.5861642
1.5905033
1.594469
1.5973725
1.6037289
1.610937
1.6243675
1.6307625
1.6405487
1.6494967
1.6586188
1.6673837
1.6735904
1.6799133
1.6878722
1.6993086
1.7040727
1.7110097
1.7192829
1.7270957
1.7351171
1.7421136
1.7436318
1.7510928
1.7615074
1.7732803
1.7835956
1.7967149
1.8140932
1.835588
1.8539462
1.8731408
1.8984116
1.9233289
1.9496921
1.629787
1.594463
1.5763396
1.5722698
1.5714893
1.5716022
1.5768808
1.5816576
1.584607
1.5905715
1.5970626
1.6091697
1.6152066
1.6258756
1.6350789
1.6431957
1.6508751
1.657845
1.6649055
1.6730592
1.6841862
1.6882167
1.69402
1.7015887
1.7088003
1.7178386
1.7255586
1.7268149
1.7342434
1.7451998
1.7564652
1.7658216
1.7775884
1.7952356
1.817224
1.8341842
1.8520919
1.8751469
1.898983
1.9255381
1.6057805
1.5816859
1.5633283
1.5593507
1.5584689
1.5577557
1.5638367
1.5695198
1.5732546
1.5788769
1.5843184
1.5954182
1.6009177
1.61192
1.6215426
1.6290861
1.6355423
1.6429594
1.6507432
1.6590788
1.6697308
1.6733413
1.6780045
1.6847141
1.6909236
1.7008336
1.7094647
1.7107683
1.7179843
1.7295355
1.7404482
1.7494385
1.7598529
1.7770782
1.7993566
1.8149694
1.8313994
1.8526126
1.8751192
1.9020219
1.5941914
1.5693219
1.5508876
1.5468426
1.5461823
1.5450672
1.5515896
1.5580437
1.5628695
1.5684361
1.5726448
1.5829389
1.5879127
1.5984845
1.6082902
1.6155782
1.621033
1.6284744
1.6370126
1.6453569
1.655311
1.6588
1.6624905
1.6682185
1.6732796
1.6839306
1.6935784
1.6954118
1.7022156
1.714139
1.7246516
1.7336527
1.743408
1.7596896
1.7819396
1.79643
1.8110119
1.8309958
1.8520097
1.8787607
1.5830437
1.5574036
1.5388682
1.5348102
1.5347997
1.5339205
1.5404727
1.5474629
1.5534061
1.5589323
1.562202
1.5716089
1.5762631
1.5856538
1.5952212
1.6021744
1.6071324
1.6141977
1.6234198
1.6316502
1.6407315
1.6443033
1.647386
1.6521329
1.6560047
1.6672746
1.6779574
1.6807833
1.6872303
1.6989951
1.70895
1.7181072
1.7280816
1.7431704
1.7649527
1.778827
1.7915953
1.8106751
1.8303407
1.856069
1.5724006
1.5461969
1.5272763
1.5232545
1.5243448
1.5242294
1.5305309
1.5377986
1.5447567
1.5500101
1.552861
1.5611703
1.5657609
1.5736337
1.5825068
1.588731
1.5937873
1.6003894
1.6099874
1.6181254
1.6264148
1.6301575
1.6329505
1.6369101
1.63972
1.6512672
1.662778
1.6667868
1.6730008
1.684192
1.6935264
1.7028052
1.7134615
1.7273579
1.7481471
1.7620153
1.7737417
1.7919588
1.8106254
1.8345941
1.5623828
1.5358133
1.5161215
1.5120718
1.514314
1.5152918
1.5211236
1.5286646
1.5363884
1.5412158
1.5438567
1.5510813
1.5556885
1.5623983
1.5701554
1.5752554
1.5805236
1.5869224
1.5964754
1.6047755
1.6124623
1.6166153
1.6191977
1.6228526
1.6248345
1.6361156
1.6478906
1.6529082
1.6590953
1.6695768
1.6785448
1.6878335
1.6990588
1.7118274
1.7309675
1.7453152
1.7571621
1.7745563
1.7924491
1.8142375
1.552943
1.5263622
1.5058575
1.5015212
1.5044081
1.5065159
1.5117184
1.5197425
1.5279372
1.5324192
1.5347793
1.5411402
1.5455797
1.551928
1.5583452
1.562205
1.5672598
1.5737187
1.582843
1.5916526
1.5989171
1.6037917
1.606233
1.6100943
1.6116589
1.6222214
1.6336209
1.6391385
1.6455622
1.6554905
1.664408
1.673707
1.6850741
1.6969229
1.7137581
1.7285118
1.7415862
1.758334
1.775425
1.7949191
1.5435098
1.5175893
1.4968579
1.4917576
1.4945166
1.497512
1.5022982
1.5106027
1.5190711
1.5234236
1.525628
1.5313021
1.5352209
1.5418123
1.5471067
1.54998
1.5544604
1.5609739
1.5694723
1.5788678
1.5859534
1.5915118
1.5940046
1.5981953
1.5998396
1.609708
1.6205138
1.6260134
1.6325294
1.6422868
1.6512363
1.6605817
1.6718639
1.6832412
1.6976067
1.7119292
1.726667
1.7430954
1.759311
1.7768154
1.5339252
1.5088971
1.4888046
1.4827199
1.4845483
1.4881219
1.4929274
1.5009091
1.509485
1.5139668
1.5163852
1.5215318
1.5245283
1.531428
1.5359823
1.5384389
1.5425053
1.5489403
1.5566651
1.5665362
1.5736251
1.5794363
1.582061
1.5862368
1.5882238
1.5977969
1.6083152
1.613658
1.6196256
1.6295365
1.6386129
1.6479417
1.659276
1.6706544
1.6828741
1.6958784
1.7118628
1.7281616
1.743483
1.7594095
1.5246077
1.5002477
1.4813107
1.4746193
1.4750764
1.4788282
1.4837213
1.4909728
1.4994215
1.5043539
1.5073885
1.5123299
1.5140561
1.5208912
1.5249009
1.527632
1.5317228
1.5381608
1.5449586
1.555144
1.562308
1.5677195
1.570383
1.5742456
1.5764574
1.5859773
1.5966929
1.6020653
1.607033
1.6170588
1.6265304
1.6357708
1.647341
1.6590064
1.6695392
1.6810017
1.6974027
1.7134092
1.7277156
1.7422231
1.515577
1.4918331
1.474003
1.4672427
1.4666421
1.4700543
1.4748095
1.4811581
1.4893059
1.4948081
1.4987428
1.5039196
1.5043404
1.5105339
1.514169
1.5176448
1.5220253
1.5286129
1.5346279
1.5447103
1.5520779
1.5564231
1.5589892
1.5627003
1.5650427
1.5743018
1.5853667
1.5909941
1.595281
1.6050669
1.614965
1.6241221
1.635903
1.6479732
1.6573595
1.6676607
1.6837952
1.6991895
1.7121925
1.7252601
1.5071732
1.4837253
1.4666346
1.4601218
1.459083
1.4617085
1.4663234
1.4715511
1.4792836
1.4850458
1.4898658
1.4956574
1.495208
1.5003241
1.5038567
1.5081877
1.5129938
1.5194987
1.5252305
1.5345378
1.5420979
1.5452716
1.5476233
1.5514853
1.5543315
1.5629392
1.5739666
1.5799595
1.5843288
1.5936841
1.6035918
1.6125984
1.6244556
1.6370089
1.6459938
1.6555507
1.6710429
1.6856734
1.6971142
1.7088038
1.5071732
1.4761795
1.4592336
1.4532003
1.4521518
1.4538015
1.4584731
1.4624407
1.469483
1.4749227
1.4801612
1.4867932
1.4862701
1.4903467
1.4938774
1.4989465
1.5043055
1.5103673
1.516108
1.5241678
1.5315652
1.5343515
1.536461
1.540558
1.5444396
1.5520786
1.5624694
1.5688943
1.5737383
1.5829767
1.5924126
1.6009551
1.6127917
1.6259013
1.6351094
1.6442481
1.6589161
1.672855
1.682782
1.6932867
1.4999967
1.4694895
1.4519694
1.4464782
1.445662
1.4465008
1.451307
1.4541435
1.4601339
1.4646722
1.4694232
1.4768405
1.4771988
1.480786
1.4840782
1.4896964
1.4956391
1.5012475
1.5066752
1.5135851
1.5205374
1.5240513
1.5261091
1.5302324
1.5353116
1.5419148
1.5511843
1.5581362
1.5633459
1.572881
1.5817385
1.5893109
1.6010534
1.6147534
1.6244966
1.6333029
1.6469685
1.6604551
1.6694593
1.6789427
1.4938184
1.4635041
1.4450085
1.4397253
1.4392716
1.4396359
1.4444249
1.446365
1.4511318
1.4547333
1.4578673
1.4655802
1.4675833
1.4714745
1.4743137
1.4800842
1.4865209
1.4919461
1.4966815
1.5028461
1.509517
1.5143883
1.5168092
1.5206448
1.5265005
1.532446
1.5404165
1.5479198
1.5532073
1.563066
1.5717095
1.5778719
1.5892967
1.6035781
1.6138574
1.6223263
1.6348346
1.6479566
1.6570839
1.665574
1.4874716
1.4577136
1.4385157
1.4328979
1.4327009
1.4327806
1.4371635
1.4383215
1.4420629
1.4451714
1.4461778
1.4532099
1.4571017
1.4619918
1.4646248
1.469718
1.4764501
1.4819996
1.4862638
1.4919573
1.4987258
1.5049517
1.508141
1.5115246
1.5173038
1.5234149
1.5304028
1.5382725
1.5433706
1.5531527
1.5620596
1.5668255
1.5774493
1.592182
1.6028774
1.6112946
1.6226822
1.6351521
1.6449856
1.6528141
1.4808352
1.4519162
1.4325894
1.4264307
1.4260919
1.4257815
1.4291188
1.429506
1.4325346
1.4356397
1.4353122
1.4406956
1.4460557
1.4521619
1.4551053
1.4588726
1.4653609
1.4713259
1.4756024
1.4810582
1.488089
1.495272
1.4995135
1.5026522
1.5077537
1.5145419
1.5212696
1.5293406
1.5341104
1.5431526
1.5523375
1.5563594
1.5656132
1.5803812
1.5914611
1.6003991
1.6110816
1.6225492
1.6328213
1.6404154
1.4743472
1.4464661
1.4270095
1.4204113
1.4195236
1.4186844
1.4206053
1.4202799
1.4224503
1.425766
1.4252065
1.4291517
1.4350991
1.4418586
1.445327
1.4481306
1.4538982
1.460404
1.4648706
1.4702686
1.4775767
1.4851695
1.4904865
1.4940734
1.4986069
1.5059153
1.512993
1.5211465
1.5255966
1.5334758
1.5422586
1.546164
1.5541931
1.5685081
1.5798266
1.5893004
1.6000202
1.6105582
1.6206255
1.6282934
1.4665835
1.4401666
1.4205799
1.4138818
1.4126344
1.4114987
1.412386
1.4116645
1.4127322
1.4158462
1.415541
1.418504
1.4241033
1.431127
1.4349234
1.4373316
1.4425836
1.4495714
1.4543047
1.4598453
1.4674768
1.4749895
1.4807315
1.4852976
1.4895358
1.4970022
1.5046282
1.5128312
1.5173264
1.5241722
1.5319706
1.5362426
1.5436352
1.5572187
1.5685102
1.578047
1.5890633
1.5989397
1.6083622
1.6165562
1.4573597
1.4329438
1.4133371
1.4067483
1.4055914
1.4046812
1.4049352
1.4042842
1.4043813
1.4068925
1.4066827
1.4088846
1.4135383
1.4206219
1.4244853
1.4267162
1.4317768
1.4392612
1.4443238
1.4500579
1.4580599
1.4652482
1.4708332
1.4758866
1.4798696
1.4870958
1.4953643
1.5039588
1.5089754
1.5152106
1.5218093
1.5264785
1.5338413
1.5466762
1.5579448
1.5673374
1.5785146
1.5879405
1.5965251
1.6052688
1.4573597
1.4256548
1.4060135
1.399573
1.3985722
1.3985597
1.398394
1.3981754
1.3975962
1.3996062
1.3991715
1.4007874
1.404072
1.410794
1.414769
1.4168291
1.4218366
1.4295608
1.4350451
1.4406661
1.4490099
1.45585
1.4610922
1.465881
1.4695988
1.4761746
1.4848878
1.4942828
1.5002214
1.5063503
1.5121245
1.5166752
1.5241802
1.5365714
1.547834
1.5573292
1.5685837
1.5779282
1.5857323
1.5946832
1.4482465
1.4187013
1.3990546
1.392751
1.391617
1.3928449
1.3926841
1.3929255
1.3919731
1.3939023
1.3931668
1.3944528
1.3961686
1.4019823
1.4061568
1.4080081
1.412903
1.4203942
1.4261526
1.431175
1.43959
1.4461532
1.4511095
1.4554589
1.4589988
1.4647079
1.4731318
1.4835237
1.4906512
1.4970583
1.5026007
1.5066284
1.5139629
1.5262793
1.5376037
1.54755
1.558961
1.5686463
1.5761184
1.584821
1.4390033
1.411919
1.3924586
1.3863145
1.3846292
1.386858
1.3872682
1.3878623
1.3869218
1.3888779
1.3883126
1.3896497
1.3899316
1.394361
1.3985795
1.4002988
1.404842
1.4117224
1.4171132
1.4211234
1.4291875
1.4356706
1.4401879
1.4442632
1.4481039
1.4532199
1.4606845
1.4714504
1.4797442
1.486743
1.4925876
1.496237
1.5030001
1.5151244
1.5266879
1.5371957
1.5489318
1.5593573
1.5670807
1.5752522
1.4297315
1.4051437
1.3861461
1.380136
1.3775156
1.3799235
1.3812535
1.3822701
1.3818148
1.3838009
1.3839738
1.3855399
1.3849784
1.3880287
1.3921151
1.3938751
1.3974451
1.4034209
1.4075664
1.4104757
1.4177799
1.4240475
1.4279011
1.4319522
1.4366167
1.4418522
1.4478483
1.4579087
1.4670448
1.4748574
1.4815524
1.4854031
1.4914831
1.5029135
1.514654
1.5255064
1.5376033
1.5491236
1.5573984
1.5652407
1.4206353
1.3984153
1.3798271
1.3741609
1.370669
1.3721348
1.374258
1.3758339
1.3759367
1.3778836
1.3788943
1.3804988
1.3800496
1.3823494
1.3863343
1.3880562
1.39031
1.3951863
1.3980398
1.4001493
1.4066234
1.412594
1.4161117
1.4199628
1.4250666
1.4306746
1.4351592
1.4439385
1.4533494
1.4619639
1.469887
1.4745877
1.4804363
1.4907309
1.5019218
1.5128493
1.5250741
1.5375137
1.5469887
1.5549326
1.4104441
1.3910823
1.3726845
1.3676765
1.3638995
1.3639836
1.3661935
1.3685704
1.3692735
1.3710918
1.3726056
1.3740022
1.3740206
1.3762959
1.3803433
1.3821484
1.3834494
1.3868467
1.3888516
1.3903198
1.3960781
1.401896
1.4056745
1.409399
1.4140273
1.4195976
1.4232265
1.4305037
1.4395026
1.4486113
1.4576662
1.4638188
1.4700342
1.4791322
1.4892398
1.5001688
1.5123987
1.5253019
1.5361342
1.5445473
1.4104441
1.383153
1.3646991
1.3603292
1.3566983
1.3556217
1.3572273
1.3603064
1.3618685
1.3636662
1.3653553
1.3663251
1.3667115
1.3695084
1.3737625
1.3759198
1.3767719
1.3787895
1.3802061
1.3811145
1.3859913
1.3916706
1.3961687
1.4003984
1.4040469
1.4090867
1.4124001
1.4182017
1.4263864
1.4355049
1.4450244
1.4528801
1.4600327
1.4684023
1.4774209
1.4880278
1.5004526
1.5134393
1.5249283
1.533916
1.3996271
1.3749155
1.3562233
1.3522058
1.3488944
1.3471884
1.3477818
1.3511779
1.3536621
1.3557087
1.3575498
1.3579432
1.3584825
1.3619217
1.3662246
1.3691891
1.3702134
1.3712143
1.3722667
1.3727365
1.3764713
1.3817495
1.387239
1.3922769
1.3955276
1.3997281
1.4028486
1.4075162
1.4148564
1.4234902
1.4330871
1.4418396
1.4501085
1.4587368
1.4669012
1.4768972
1.4895705
1.5026605
1.5140432
1.5232044
1.389319
1.3672054
1.3483312
1.3441681
1.3409061
1.3392733
1.3388292
1.3418727
1.3448912
1.3471812
1.3494717
1.3497063
1.3501157
1.35387
1.357749
1.361432
1.3636951
1.3643458
1.3653986
1.3656628
1.3681343
1.3729539
1.3788576
1.384406
1.3879069
1.392133
1.3951145
1.3990529
1.4057689
1.4139104
1.4233629
1.431965
1.4408228
1.4502828
1.4581598
1.4674749
1.4801875
1.4936346
1.5046312
1.5129637
1.3790666
1.360146
1.3414828
1.3373146
1.3338045
1.3324481
1.3314087
1.3333901
1.3360226
1.3382605
1.3411214
1.3417152
1.341877
1.3452499
1.3482318
1.3524776
1.3565679
1.3575264
1.3591387
1.3597579
1.3611358
1.3656061
1.3716319
1.3769543
1.380652
1.385412
1.3885078
1.3918006
1.3979803
1.4058162
1.4153188
1.4240543
1.4328736
1.4427022
1.4506499
1.4593225
1.4713918
1.4850074
1.4962018
1.5039865
1.3790666
1.3531702
1.3348362
1.3307608
1.3272849
1.3258609
1.3247991
1.3256778
1.3273643
1.3292084
1.3325142
1.3336072
1.3337862
1.3364687
1.3383472
1.3426843
1.3483787
1.3500117
1.3524622
1.3538847
1.3547484
1.3588358
1.3650998
1.3701824
1.3738719
1.3788509
1.3822312
1.3848772
1.3903562
1.3977897
1.4069426
1.4162898
1.4253898
1.4352841
1.4434046
1.4513413
1.4622123
1.4757358
1.4873796
1.4952545
1.3689834
1.3462576
1.3282262
1.3241426
1.3209982
1.3193319
1.3183312
1.3185377
1.3194933
1.3203659
1.3238746
1.3255506
1.3259907
1.3282666
1.3290937
1.3329346
1.3397943
1.3420827
1.3452653
1.3478342
1.348583
1.3523314
1.3588943
1.3638921
1.3675604
1.3726385
1.3763065
1.3784598
1.3832138
1.3900744
1.3984251
1.4082017
1.4179083
1.4277959
1.4361885
1.443432
1.453091
1.465986
1.477727
1.4859533
1.3596965
1.3394479
1.3215472
1.3171664
1.3145698
1.3126215
1.3116148
1.3114389
1.3121642
1.3123547
1.3154292
1.317765
1.3186715
1.3209113
1.3213909
1.3243536
1.3316724
1.3343832
1.3377998
1.3415118
1.3424077
1.3459451
1.3526322
1.3575766
1.3614714
1.3667401
1.3707135
1.3728024
1.3768883
1.3831635
1.3903534
1.3995682
1.4098896
1.419925
1.4287612
1.435617
1.4439994
1.4560605
1.4676358
1.47587
1.3510405
1.3330818
1.3150191
1.309964
1.3078516
1.3052803
1.3042573
1.3037905
1.3047565
1.3050075
1.3073648
1.3101459
1.3116441
1.3145738
1.315842
1.3183016
1.325216
1.3276738
1.3308693
1.3350765
1.3362668
1.3393478
1.3455431
1.3502998
1.3546576
1.3603626
1.3651248
1.3677131
1.3711636
1.376991
1.3831842
1.391482
1.4013382
1.4112464
1.4206392
1.4278381
1.4353265
1.4467083
1.4579302
1.4657956
1.342068
1.3267201
1.3086206
1.3025694
1.3007318
1.2980425
1.2970673
1.2961311
1.2968694
1.2974449
1.2990649
1.3018333
1.3037925
1.3070369
1.3095016
1.3118643
1.3183156
1.3204839
1.3232706
1.3278186
1.329532
1.3320777
1.3377379
1.3420507