/*--------------------------------*- C++ -*----------------------------------*    | =========                 |                                                 |
    | \      /  F ield         | OpenFOAM: The Open Source CFD Toolbox           |
    |  \    /   O peration     | Version:  v2006                                 |
    |   \  /    A nd           | Website:  www.openfoam.com                      |
    |    \/     M anipulation  |                                                 |
    \*---------------------------------------------------------------------------*/
    FoamFile
    {
        version     2.0;
        format      ascii;
        class       volVectorField;
        object      U;
    }
    // * * * * * * * * * * * * * * * * * * * * * * * * * * * * * * * * * * * * * //
    
    dimensions      [0 1 -1 0 0 0 0];
    
    internalField   nonuniform List<vector>
72100
(
(0.0592819 1.0213668e-05 0.0)
(0.48587742 -2.1070766e-05 0.0)
(0.48579982 8.082574e-06 0.0)
(0.50298536 4.4434884e-05 0.0)
(0.5003745 4.717657e-05 0.0)
(0.4978684 4.8866867e-05 0.0)
(0.49341092 4.4590633e-05 0.0)
(0.4841463 3.2677708e-05 0.0)
(0.47494915 2.07874e-05 0.0)
(0.46503726 1.2868168e-05 0.0)
(0.45354813 8.297059e-06 0.0)
(0.48408994 4.7494865e-05 0.0)
(0.4824906 4.944743e-05 0.0)
(0.47029355 3.8580354e-05 0.0)
(0.4548554 2.4021603e-05 0.0)
(0.43732476 7.7447585e-06 0.0)
(0.4716802 5.900008e-05 0.0)
(0.45882702 4.0831077e-05 0.0)
(0.43978024 1.9576308e-05 0.0)
(0.46306512 7.0957394e-05 0.0)
(0.454506 5.7135716e-05 0.0)
(0.43250152 2.7703249e-05 0.0)
(0.4533232 8.760788e-05 0.0)
(0.44068506 6.184988e-05 0.0)
(0.4151071 2.3077047e-05 0.0)
(0.442478 0.000110255365 0.0)
(0.41712594 5.2340958e-05 0.0)
(0.4313818 0.00013738277 0.0)
(0.41311347 8.634951e-05 0.0)
(0.38090083 1.642674e-05 0.0)
(0.4044567 0.000114142436 0.0)
(0.36960468 3.1734e-05 0.0)
(0.39001623 0.00014662869 0.0)
(0.35195988 3.7284437e-05 0.0)
(0.36912546 0.00016412795 0.0)
(0.327428 4.105438e-05 0.0)
(0.3397897 0.0001826894 0.0)
(0.3381252 0.00039812864 0.0)
(0.29838604 0.00018782649 0.0)
(0.30184472 0.0005335225 0.0)
(0.0592819 1.0213668e-05 0.0)
(1.4076245 -0.00020085248 0.0)
(1.407367 7.357968e-05 0.0)
(1.4004084 0.00013111619 0.0)
(1.3926243 0.00013416681 0.0)
(1.3849468 0.00013831975 0.0)
(1.3769699 0.00014281583 0.0)
(1.3694172 0.000123657 0.0)
(1.3636237 9.520452e-05 0.0)
(1.3592529 7.895719e-05 0.0)
(1.3514706 8.343426e-05 0.0)
(1.3486534 0.00011683199 0.0)
(1.3426391 0.00012848775 0.0)
(1.3353432 0.0001517273 0.0)
(1.3277539 0.00014810741 0.0)
(1.3135792 0.00011297345 0.0)
(1.3130461 0.00014136532 0.0)
(1.3059826 0.00015048885 0.0)
(1.298878 0.00014879165 0.0)
(1.2903117 0.00016723665 0.0)
(1.282271 0.0001801883 0.0)
(1.2738957 0.0001926799 0.0)
(1.2631005 0.00020638175 0.0)
(1.253556 0.0002234406 0.0)
(1.24043 0.00022403871 0.0)
(1.2301795 0.0002703763 0.0)
(1.2180995 0.0002926496 0.0)
(1.2022731 0.00033651447 0.0)
(1.1870073 0.0003724188 0.0)
(1.1578902 0.0003106523 0.0)
(1.1511655 0.00043197643 0.0)
(1.1219801 0.0004106485 0.0)
(1.1075975 0.0005384493 0.0)
(1.0729 0.00049127016 0.0)
(1.0497906 0.00062409387 0.0)
(1.007901 0.0006172122 0.0)
(0.98084813 0.0008323182 0.0)
(0.9426583 0.0010774677 0.0)
(0.88681793 0.0011758888 0.0)
(0.82490385 0.001571933 0.0)
(0.0592819 1.0213668e-05 0.0)
(2.3347158 -0.00040780753 0.0)
(2.3343432 0.00015417614 0.0)
(2.3232563 0.0002751642 0.0)
(2.3106456 0.0002800541 0.0)
(2.2981703 0.00028965503 0.0)
(2.2850633 0.0002979586 0.0)
(2.2729115 0.0002487068 0.0)
(2.2637577 0.00018806277 0.0)
(2.2567585 0.00015949518 0.0)
(2.2498004 0.00019430915 0.0)
(2.2403862 0.00023894139 0.0)
(2.2303183 0.00026712028 0.0)
(2.2179325 0.00031264918 0.0)
(2.205412 0.00029985787 0.0)
(2.1937866 0.000275673 0.0)
(2.182739 0.0002891982 0.0)
(2.1706243 0.00030684768 0.0)
(2.158602 0.00030593172 0.0)
(2.146183 0.00034127568 0.0)
(2.1323247 0.00036717154 0.0)
(2.1178718 0.00039708774 0.0)
(2.1023095 0.0004209688 0.0)
(2.085522 0.00045906473 0.0)
(2.0679996 0.00049403816 0.0)
(2.0483809 0.000556803 0.0)
(2.0271697 0.0006061805 0.0)
(2.0041776 0.0006938259 0.0)
(1.976875 0.0007677354 0.0)
(1.9494824 0.0007971312 0.0)
(1.9191033 0.00090218446 0.0)
(1.8860651 0.0010101162 0.0)
(1.8483208 0.0011214461 0.0)
(1.8086944 0.0012192053 0.0)
(1.7640408 0.0013983004 0.0)
(1.7144562 0.0016216148 0.0)
(1.6548249 0.0019016243 0.0)
(1.5883043 0.0022647006 0.0)
(1.5068702 0.0027847844 0.0)
(1.4011815 0.0034183934 0.0)
(3.3889132 -0.0011973036 0.0)
(3.2457738 -0.00072592904 0.0)
(3.2459188 0.00027989 0.0)
(3.232325 0.0005183748 0.0)
(3.2161002 0.0005307074 0.0)
(3.1999996 0.0005506173 0.0)
(3.1829412 0.0005675525 0.0)
(3.1671157 0.000471261 0.0)
(3.1551476 0.00035383643 0.0)
(3.1458714 0.00030396553 0.0)
(3.136435 0.0003715639 0.0)
(3.124042 0.00045305124 0.0)
(3.1109774 0.000508694 0.0)
(3.0947359 0.00059551746 0.0)
(3.078234 0.00057230395 0.0)
(3.0627456 0.0005289337 0.0)
(3.0480452 0.0005532033 0.0)
(3.0318563 0.0005895344 0.0)
(3.015635 0.0005909856 0.0)
(2.9988444 0.00065464026 0.0)
(2.9806454 0.00069722644 0.0)
(2.9614973 0.0007626442 0.0)
(2.940757 0.0008071876 0.0)
(2.9184074 0.0008807957 0.0)
(2.8949113 0.0009496129 0.0)
(2.8688889 0.0010663619 0.0)
(2.8407903 0.0011600638 0.0)
(2.8103757 0.0013337877 0.0)
(2.7743444 0.0014679208 0.0)
(2.7383392 0.0015282044 0.0)
(2.6982083 0.001730677 0.0)
(2.6543522 0.001936659 0.0)
(2.6047425 0.0021501512 0.0)
(2.5521162 0.0023364492 0.0)
(2.493466 0.002670231 0.0)
(2.4283106 0.0030943474 0.0)
(2.3502107 0.003633964 0.0)
(2.2633197 0.0043149022 0.0)
(2.1568437 0.005294608 0.0)
(2.0210803 0.0065269116 0.0)
(4.059748 -0.001589542 0.0)
(4.1011786 -0.0010940478 0.0)
(4.10257 0.0004142386 0.0)
(4.0880346 0.00081090286 0.0)
(4.0694466 0.00084108004 0.0)
(4.0507464 0.0008753609 0.0)
(4.030753 0.0009049604 0.0)
(4.0121784 0.00075328257 0.0)
(3.997907 0.0005671377 0.0)
(3.9864872 0.0004924014 0.0)
(3.974642 0.00060027494 0.0)
(3.9597342 0.0007218245 0.0)
(3.944342 0.0008109652 0.0)
(3.9252043 0.000952266 0.0)
(3.9053726 0.0009215401 0.0)
(3.8863633 0.0008568645 0.0)
(3.8684642 0.00089262094 0.0)
(3.8488646 0.00095531915 0.0)
(3.8287141 0.0009641131 0.0)
(3.8077722 0.00106071 0.0)
(3.7858074 0.0011172083 0.0)
(3.7626612 0.0012300765 0.0)
(3.7373185 0.001306321 0.0)
(3.710217 0.0014246479 0.0)
(3.6811323 0.0015386599 0.0)
(3.649532 0.0017189782 0.0)
(3.6157684 0.0018630126 0.0)
(3.5788314 0.0021525903 0.0)
(3.536074 0.0023563593 0.0)
(3.4923854 0.002464278 0.0)
(3.4444542 0.002784824 0.0)
(3.3910468 0.0031222145 0.0)
(3.3319383 0.003459733 0.0)
(3.267888 0.0037666312 0.0)
(3.1981676 0.004273388 0.0)
(3.1194634 0.004962795 0.0)
(3.0274773 0.0058055012 0.0)
(2.9229217 0.00690857 0.0)
(2.7968314 0.008403698 0.0)
(2.6372068 0.010464079 0.0)
(4.732691 -0.0020124253 0.0)
(4.875098 -0.0014943647 0.0)
(4.878082 0.0005379047 0.0)
(4.864043 0.0011314243 0.0)
(4.844454 0.0011956682 0.0)
(4.8242235 0.0012523215 0.0)
(4.802338 0.0012974188 0.0)
(4.7818727 0.0010789523 0.0)
(4.7656918 0.000820736 0.0)
(4.752331 0.0007284203 0.0)
(4.73845 0.00088092766 0.0)
(4.7216105 0.0010399022 0.0)
(4.7043276 0.0011700229 0.0)
(4.683055 0.0013754909 0.0)
(4.660626 0.001342672 0.0)
(4.638904 0.0012577263 0.0)
(4.618233 0.0013065162 0.0)
(4.5956388 0.0014048088 0.0)
(4.572082 0.0014305176 0.0)
(4.5475664 0.0015604051 0.0)
(4.522047 0.0016290445 0.0)
(4.4955072 0.0017984639 0.0)
(4.4665275 0.001917462 0.0)
(4.4349704 0.0020979154 0.0)
(4.4012046 0.0022631837 0.0)
(4.3649006 0.002511267 0.0)
(4.32627 0.0027195178 0.0)
(4.2844095 0.0031391033 0.0)
(4.235876 0.003423435 0.0)
(4.1866317 0.0035903943 0.0)
(4.1317883 0.004069274 0.0)
(4.071366 0.0045489497 0.0)
(4.0040627 0.0050478526 0.0)
(3.931618 0.005489465 0.0)
(3.8521214 0.006218668 0.0)
(3.7637115 0.007189449 0.0)
(3.6597157 0.008435175 0.0)
(3.5426078 0.010009719 0.0)
(3.4003131 0.01218651 0.0)
(3.2236705 0.015216516 0.0)
(5.3956113 -0.002445356 0.0)
(5.557163 -0.0018985525 0.0)
(5.5613704 0.00063591887 0.0)
(5.548739 0.0014524623 0.0)
(5.529303 0.0015720879 0.0)
(5.5084844 0.0016594925 0.0)
(5.485727 0.0017246936 0.0)
(5.4641576 0.0014433495 0.0)
(5.4463525 0.0011160605 0.0)
(5.4312735 0.0010043728 0.0)
(5.41572 0.0012016468 0.0)
(5.3974714 0.0013971059 0.0)
(5.3785915 0.0015690931 0.0)
(5.355982 0.0018453707 0.0)
(5.331775 0.0018225303 0.0)
(5.307852 0.0017175488 0.0)
(5.28499 0.0017805183 0.0)
(5.260057 0.0019235627 0.0)
(5.2336774 0.0019769692 0.0)
(5.205965 0.0021408484 0.0)
(5.177346 0.0022207291 0.0)
(5.1479616 0.0024447269 0.0)
(5.115927 0.0026226651 0.0)
(5.0807786 0.0028774738 0.0)
(5.043062 0.0030992674 0.0)
(5.0029306 0.00341387 0.0)
(4.960597 0.0036883762 0.0)
(4.9145727 0.0042561963 0.0)
(4.8617373 0.0046306713 0.0)
(4.8078284 0.004870954 0.0)
(4.7478013 0.0055224597 0.0)
(4.6819196 0.0061637973 0.0)
(4.6086097 0.00684288 0.0)
(4.529588 0.007444825 0.0)
(4.442721 0.0084099 0.0)
(4.3467035 0.009693633 0.0)
(4.23433 0.011376269 0.0)
(4.1076717 0.013488611 0.0)
(3.9540637 0.016336411 0.0)
(3.7654018 0.020545606 0.0)
(6.029257 -0.0028522045 0.0)
(6.1495013 -0.0022788267 0.0)
(6.1540527 0.00070567854 0.0)
(6.1432066 0.0017565782 0.0)
(6.1247025 0.0019548223 0.0)
(6.103977 0.0020817397 0.0)
(6.0812078 0.002171082 0.0)
(6.0592437 0.0018391387 0.0)
(6.0401034 0.0014525909 0.0)
(6.0234656 0.0013166697 0.0)
(6.0067096 0.0015559308 0.0)
(5.987489 0.0017897785 0.0)
(5.9671564 0.0020026548 0.0)
(5.9438057 0.0023477464 0.0)
(5.918555 0.0023497362 0.0)
(5.8931 0.002227105 0.0)
(5.8685455 0.0023072164 0.0)
(5.841849 0.0025023518 0.0)
(5.813172 0.002598683 0.0)
(5.7828326 0.0027967282 0.0)
(5.751525 0.0028898157 0.0)
(5.719569 0.0031648476 0.0)
(5.6851487 0.0034114197 0.0)
(5.6473184 0.003750416 0.0)
(5.6063848 0.0040377933 0.0)
(5.5633006 0.004413391 0.0)
(5.517967 0.0047638817 0.0)
(5.468683 0.0054855044 0.0)
(5.412717 0.005961444 0.0)
(5.3548465 0.0062892325 0.0)
(5.2910066 0.0071167685 0.0)
(5.221058 0.007937721 0.0)
(5.14363 0.00880947 0.0)
(5.0596952 0.009600915 0.0)
(4.9674377 0.010809522 0.0)
(4.8657002 0.012427866 0.0)
(4.747876 0.014567793 0.0)
(4.6143117 0.01727879 0.0)
(4.45248 0.020873057 0.0)
(4.256484 0.026325785 0.0)
(6.622343 -0.003190736 0.0)
(6.665088 -0.002609447 0.0)
(6.6689677 0.0007561218 0.0)
(6.6598363 0.0020382672 0.0)
(6.6426425 0.002337764 0.0)
(6.622399 0.0025119751 0.0)
(6.600235 0.0026272659 0.0)
(6.578449 0.0022619579 0.0)
(6.558324 0.001831903 0.0)
(6.5404134 0.0016624492 0.0)
(6.522787 0.001940488 0.0)
(6.5028324 0.0022202667 0.0)
(6.481188 0.002471934 0.0)
(6.4574814 0.0028747078 0.0)
(6.4319644 0.0029154152 0.0)
(6.405508 0.002783771 0.0)
(6.3795795 0.0028849875 0.0)
(6.351572 0.0031364365 0.0)
(6.321257 0.0032887848 0.0)
(6.2887073 0.0035287812 0.0)
(6.2550497 0.0036392235 0.0)
(6.2208586 0.0039539966 0.0)
(6.1844506 0.0042783786 0.0)
(6.1447625 0.0047075865 0.0)
(6.1014853 0.0050711194 0.0)
(6.056075 0.005506556 0.0)
(6.0084267 0.005933563 0.0)
(5.956425 0.0068206266 0.0)
(5.898178 0.0074099647 0.0)
(5.8369193 0.007842074 0.0)
(5.7702174 0.008840213 0.0)
(5.697377 0.009854871 0.0)
(5.61724 0.010927947 0.0)
(5.5298567 0.011941653 0.0)
(5.4336553 0.013401264 0.0)
(5.327739 0.015366943 0.0)
(5.206539 0.017976167 0.0)
(5.0682106 0.021347385 0.0)
(4.9011955 0.025642935 0.0)
(4.70043 0.032481026 0.0)
(7.1700826 -0.0034297474 0.0)
(7.10289 -0.0028624414 0.0)
(7.1052194 0.00079859584 0.0)
(7.097379 0.0022924675 0.0)
(7.08154 0.0027117836 0.0)
(7.061944 0.0029373767 0.0)
(7.040814 0.0030743037 0.0)
(7.019507 0.0026951001 0.0)
(6.998757 0.0022392138 0.0)
(6.9799953 0.0020320807 0.0)
(6.961796 0.0023452276 0.0)
(6.9412103 0.0026814514 0.0)
(6.9185066 0.002968437 0.0)
(6.8947988 0.0034114034 0.0)
(6.8695383 0.0034979207 0.0)
(6.8426747 0.0033738622 0.0)
(6.8154817 0.003503321 0.0)
(6.7865367 0.0038146682 0.0)
(6.7551436 0.0040304423 0.0)
(6.7209907 0.004324222 0.0)
(6.68516 0.004458219 0.0)
(6.649121 0.004805386 0.0)
(6.6111984 0.0052016126 0.0)
(6.5703444 0.0057320283 0.0)
(6.52564 0.006173476 0.0)
(6.4784713 0.006675259 0.0)
(6.4289236 0.007191433 0.0)
(6.374982 0.008234138 0.0)
(6.314946 0.008957123 0.0)
(6.2511816 0.009496674 0.0)
(6.182166 0.010673647 0.0)
(6.107637 0.011857253 0.0)
(6.0257087 0.013168785 0.0)
(5.9364533 0.01439894 0.0)
(5.837142 0.01616209 0.0)
(5.7287016 0.018431032 0.0)
(5.60538 0.021579469 0.0)
(5.464254 0.025623327 0.0)
(5.2938175 0.030704815 0.0)
(5.0910563 0.03901751 0.0)
(7.424147 -0.0035008588 0.0)
(7.486157 -0.0030332599 0.0)
(7.4864116 0.0008474875 0.0)
(7.479261 0.0025240295 0.0)
(7.4646277 0.0030780707 0.0)
(7.4457054 0.0033578475 0.0)
(7.4256616 0.0035148342 0.0)
(7.4051704 0.0031434281 0.0)
(7.3842444 0.0026773661 0.0)
(7.3648934 0.0024273854 0.0)
(7.3462205 0.002780093 0.0)
(7.3251085 0.0031767434 0.0)
(7.3017993 0.0034895192 0.0)
(7.2781277 0.0039569065 0.0)
(7.2534733 0.004097486 0.0)
(7.2264886 0.00400469 0.0)
(7.1982965 0.0041629206 0.0)
(7.168654 0.0045332713 0.0)
(7.136448 0.00482672 0.0)
(7.101234 0.005186659 0.0)
(7.0637174 0.005351376 0.0)
(7.0257673 0.005727372 0.0)
(6.9866333 0.0061805886 0.0)
(6.945212 0.0068083024 0.0)
(6.8995175 0.0073513007 0.0)
(6.851314 0.00791686 0.0)
(6.8001003 0.008537695 0.0)
(6.744693 0.009728347 0.0)
(6.6833963 0.010602472 0.0)
(6.6174655 0.011271592 0.0)
(6.546898 0.012597866 0.0)
(6.471055 0.013974142 0.0)
(6.3882732 0.015500724 0.0)
(6.2977624 0.017004948 0.0)
(6.1966133 0.019056432 0.0)
(6.086222 0.021651715 0.0)
(5.9618187 0.025331868 0.0)
(5.819032 0.030073807 0.0)
(5.6465173 0.03602347 0.0)
(5.443064 0.045614485 0.0)
(7.897231 -0.0035509071 0.0)
(7.8163857 -0.0031180212 0.0)
(7.8144026 0.00091804785 0.0)
(7.807454 0.0027414905 0.0)
(7.793829 0.0034388776 0.0)
(7.775546 0.0037702585 0.0)
(7.756535 0.003940575 0.0)
(7.736854 0.0035930146 0.0)
(7.716068 0.003128964 0.0)
(7.696415 0.0028399555 0.0)
(7.677376 0.0032307787 0.0)
(7.655888 0.003693686 0.0)
(7.6323423 0.0040258444 0.0)
(7.6088023 0.004504946 0.0)
(7.5847535 0.004692902 0.0)
(7.557985 0.0046614925 0.0)
(7.528935 0.0048561757 0.0)
(7.498786 0.0052863867 0.0)
(7.466083 0.0056489315 0.0)
(7.4302845 0.006098696 0.0)
(7.3913474 0.0063059945 0.0)
(7.3519444 0.006704224 0.0)
(7.3116 0.0071978318 0.0)
(7.2699633 0.007927973 0.0)
(7.223828 0.008570135 0.0)
(7.1749477 0.009218208 0.0)
(7.122537 0.009945681 0.0)
(7.066044 0.011281036 0.0)
(7.0038157 0.0123280035 0.0)
(6.936366 0.013127905 0.0)
(6.864627 0.0146073075 0.0)
(6.78805 0.016147824 0.0)
(6.7047887 0.017922314 0.0)
(6.6137815 0.019682964 0.0)
(6.5114446 0.022079261 0.0)
(6.399943 0.024961172 0.0)
(6.274919 0.029207839 0.0)
(6.131411 0.034672853 0.0)
(5.9581122 0.04144082 0.0)
(5.755026 0.05251083 0.0)
(8.114696 -0.0035302064 0.0)
(8.109818 -0.0031292634 0.0)
(8.105708 0.0010190144 0.0)
(8.09864 0.0029515647 0.0)
(8.085853 0.003794463 0.0)
(8.068148 0.0041807718 0.0)
(8.049895 0.004360971 0.0)
(8.031028 0.0040439907 0.0)
(8.010643 0.003597722 0.0)
(7.9908667 0.003275388 0.0)
(7.971532 0.0037037516 0.0)
(7.9499464 0.0042316653 0.0)
(7.9264145 0.004581022 0.0)
(7.902969 0.0050645317 0.0)
(7.879363 0.005290586 0.0)
(7.8530207 0.0053492226 0.0)
(7.823421 0.005584372 0.0)
(7.7928944 0.006065876 0.0)
(7.75978 0.006506 0.0)
(7.7238145 0.0070591955 0.0)
(7.6840587 0.007320061 0.0)
(7.6432424 0.007747589 0.0)
(7.6016583 0.00826151 0.0)
(7.559901 0.009067435 0.0)
(7.513612 0.009839742 0.0)
(7.4644485 0.010571054 0.0)
(7.411163 0.01141762 0.0)
(7.3538365 0.012898388 0.0)
(7.2910833 0.014113343 0.0)
(7.2224407 0.01507662 0.0)
(7.149978 0.016672738 0.0)
(7.072914 0.018402934 0.0)
(6.989436 0.02038439 0.0)
(6.8982 0.02245896 0.0)
(6.7954297 0.025168424 0.0)
(6.6831217 0.02839273 0.0)
(6.557729 0.033140857 0.0)
(6.4141474 0.039393887 0.0)
(6.2409067 0.046982754 0.0)
(6.0384207 0.059369992 0.0)
(8.316904 -0.0034828682 0.0)
(8.361029 -0.0030703535 0.0)
(8.355234 0.00115449 0.0)
(8.347855 0.003155062 0.0)
(8.335783 0.0041447137 0.0)
(8.318638 0.0045849564 0.0)
(8.300878 0.0047736187 0.0)
(8.282662 0.0044942247 0.0)
(8.26277 0.0040683467 0.0)
(8.242914 0.003727331 0.0)
(8.223455 0.0041893767 0.0)
(8.20211 0.0047737043 0.0)
(8.178718 0.0051451772 0.0)
(8.155311 0.005633211 0.0)
(8.131916 0.005892687 0.0)
(8.106016 0.0060531767 0.0)
(8.076194 0.0063335355 0.0)
(8.045407 0.0068749553 0.0)
(8.012096 0.0073874984 0.0)
(7.9762855 0.008039496 0.0)
(7.936119 0.0083786575 0.0)
(7.894242 0.008845191 0.0)
(7.8516006 0.009358872 0.0)
(7.809563 0.010239804 0.0)
(7.7633643 0.011135752 0.0)
(7.714173 0.011959696 0.0)
(7.6602316 0.01294743 0.0)
(7.602492 0.014546338 0.0)
(7.539466 0.01596469 0.0)
(7.4702516 0.017077258 0.0)
(7.397351 0.018795386 0.0)
(7.320213 0.020702057 0.0)
(7.2366204 0.022913823 0.0)
(7.1453147 0.025289258 0.0)
(7.042524 0.02834993 0.0)
(6.929839 0.031887725 0.0)
(6.80426 0.0372009 0.0)
(6.6611533 0.044149946 0.0)
(6.488703 0.052713588 0.0)
(6.2876296 0.06636441 0.0)
(8.664328 -0.0033226425 0.0)
(8.588093 -0.0029621182 0.0)
(8.581039 0.0013252508 0.0)
(8.573326 0.0033663232 0.0)
(8.561889 0.004502219 0.0)
(8.54535 0.0050003733 0.0)
(8.527899 0.0051976554 0.0)
(8.5102005 0.0049562827 0.0)
(8.490829 0.004556508 0.0)
(8.471012 0.0042092004 0.0)
(8.451448 0.0046916865 0.0)
(8.430592 0.0053347093 0.0)
(8.407372 0.0057370695 0.0)
(8.383926 0.006234739 0.0)
(8.36042 0.006509801 0.0)
(8.335014 0.006782139 0.0)
(8.3052435 0.0071211522 0.0)
(8.274344 0.007727263 0.0)
(8.240931 0.008298552 0.0)
(8.205426 0.00906178 0.0)
(8.165316 0.009499483 0.0)
(8.122865 0.010015563 0.0)
(8.079157 0.010528649 0.0)
(8.036523 0.011466666 0.0)
(7.9905214 0.012477116 0.0)
(7.9414277 0.013417772 0.0)
(7.8870687 0.014551551 0.0)
(7.8290915 0.016272899 0.0)
(7.766125 0.017901627 0.0)
(7.6967883 0.019171625 0.0)
(7.623648 0.02101134 0.0)
(7.546667 0.023084236 0.0)
(7.463017 0.025557734 0.0)
(7.3716564 0.028217249 0.0)
(7.269099 0.031672213 0.0)
(7.1562114 0.035530437 0.0)
(7.03056 0.04141081 0.0)
(6.888295 0.04908033 0.0)
(6.7173014 0.058559727 0.0)
(6.5180945 0.07358389 0.0)
(8.812855 -0.003227639 0.0)
(8.79273 -0.0028241747 0.0)
(8.784876 0.00151734 0.0)
(8.776843 0.0035782496 0.0)
(8.765915 0.004852681 0.0)
(8.750065 0.005416149 0.0)
(8.732855 0.005624648 0.0)
(8.715509 0.0054116687 0.0)
(8.696642 0.0050466736 0.0)
(8.676993 0.0047075734 0.0)
(8.657355 0.0052005947 0.0)
(8.637044 0.0058983564 0.0)
(8.614027 0.0063429535 0.0)
(8.590499 0.006856199 0.0)
(8.566642 0.007137276 0.0)
(8.541635 0.0075200903 0.0)
(8.512165 0.007927433 0.0)
(8.481299 0.008590787 0.0)
(8.4478655 0.009228274 0.0)
(8.412668 0.010098862 0.0)
(8.37298 0.010643369 0.0)
(8.330413 0.011230153 0.0)
(8.285911 0.011756821 0.0)
(8.242389 0.012715787 0.0)
(8.1965065 0.013844722 0.0)
(8.147538 0.014912211 0.0)
(8.092963 0.016197303 0.0)
(8.0349245 0.018044313 0.0)
(7.9722223 0.019849317 0.0)
(7.903247 0.02132297 0.0)
(7.830034 0.023262415 0.0)
(7.7533364 0.02552179 0.0)
(7.6697245 0.02823683 0.0)
(7.578322 0.031216718 0.0)
(7.476049 0.03501967 0.0)
(7.363133 0.03927793 0.0)
(7.2374024 0.04562932 0.0)
(7.0963287 0.05409172 0.0)
(6.9272203 0.064446375 0.0)
(6.7301364 0.080798715 0.0)
(8.948157 -0.003129389 0.0)
(8.97544 -0.0026670585 0.0)
(8.967261 0.0017221221 0.0)
(8.958971 0.0037912943 0.0)
(8.948337 0.0051817982 0.0)
(8.933308 0.005824679 0.0)
(8.916404 0.0060525816 0.0)
(8.899334 0.005864852 0.0)
(8.8809 0.0055374783 0.0)
(8.861397 0.005216822 0.0)
(8.841764 0.005713546 0.0)
(8.821864 0.0064584934 0.0)
(8.7990885 0.006959336 0.0)
(8.775393 0.007498894 0.0)
(8.751078 0.007784631 0.0)
(8.726346 0.008263691 0.0)
(8.697363 0.008743377 0.0)
(8.666676 0.009478766 0.0)
(8.633303 0.0101805 0.0)
(8.598311 0.011138966 0.0)
(8.559315 0.011805605 0.0)
(8.5171 0.01248299 0.0)
(8.472254 0.013044951 0.0)
(8.427613 0.014014043 0.0)
(8.381711 0.0152429 0.0)
(8.332808 0.016436316 0.0)
(8.278223 0.017894056 0.0)
(8.220271 0.019847324 0.0)
(8.158136 0.021846317 0.0)
(8.089844 0.02351949 0.0)
(8.016734 0.025569595 0.0)
(7.940309 0.02801896 0.0)
(7.8568068 0.03099608 0.0)
(7.7655015 0.034295414 0.0)
(7.663584 0.038473893 0.0)
(7.5507917 0.043127835 0.0)
(7.4252014 0.049989004 0.0)
(7.2852726 0.059123434 0.0)
(7.118688 0.07051947 0.0)
(6.923851 0.08806209 0.0)
(9.186371 -0.0029299909 0.0)
(9.140966 -0.002497747 0.0)
(9.132871 0.0019341739 0.0)
(9.124387 0.0040144655 0.0)
(9.113913 0.0055078724 0.0)
(9.099777 0.0062290574 0.0)
(9.083258 0.0064862827 0.0)
(9.066397 0.006320582 0.0)
(9.048292 0.0060321144 0.0)
(9.028903 0.005737913 0.0)
(9.009308 0.0062337853 0.0)
(8.989669 0.0070224013 0.0)
(8.967163 0.007592352 0.0)
(8.943253 0.008167558 0.0)
(8.918451 0.008454817 0.0)
(8.893817 0.00900677 0.0)
(8.865517 0.009573285 0.0)
(8.835105 0.010390548 0.0)
(8.801854 0.011152057 0.0)
(8.766996 0.012192526 0.0)
(8.728844 0.012984347 0.0)
(8.687231 0.013754583 0.0)
(8.642445 0.014392279 0.0)
(8.596747 0.015367463 0.0)
(8.550678 0.016665995 0.0)
(8.501785 0.01800891 0.0)
(8.447376 0.019627359 0.0)
(8.389571 0.021689914 0.0)
(8.32818 0.023875322 0.0)
(8.260778 0.025756132 0.0)
(8.187888 0.027938496 0.0)
(8.111653 0.030561052 0.0)
(8.028315 0.033843253 0.0)
(7.9372163 0.03742905 0.0)
(7.8358245 0.042031337 0.0)
(7.7233825 0.04707273 0.0)
(7.5980635 0.05444418 0.0)
(7.4593616 0.064259745 0.0)
(7.2953196 0.076603316 0.0)
(7.1033516 0.09551025 0.0)
(9.292488 -0.002833246 0.0)
(9.292834 -0.0023250415 0.0)
(9.285156 0.0021442808 0.0)
(9.276535 0.0042486065 0.0)
(9.266042 0.0058212015 0.0)
(9.252751 0.006618916 0.0)
(9.236776 0.006924401 0.0)
(9.220011 0.006772999 0.0)
(9.202226 0.0065277168 0.0)
(9.182886 0.0062689753 0.0)
(9.163358 0.006763412 0.0)
(9.143847 0.007589877 0.0)
(9.121615 0.008233972 0.0)
(9.0975685 0.008852594 0.0)
(9.072261 0.0091508515 0.0)
(9.047555 0.00975237 0.0)
(9.019934 0.010405119 0.0)
(8.9899025 0.01130372 0.0)
(8.956895 0.012144636 0.0)
(8.922172 0.013254999 0.0)
(8.884742 0.014147858 0.0)
(8.844048 0.015036623 0.0)
(8.799637 0.01578202 0.0)
(8.753277 0.016768744 0.0)
(8.706841 0.018123787 0.0)
(8.657921 0.019597327 0.0)
(8.603777 0.02138579 0.0)
(8.546161 0.023561388 0.0)
(8.485421 0.025894511 0.0)
(8.419138 0.028028391 0.0)
(8.346465 0.030336127 0.0)
(8.270388 0.03316037 0.0)
(8.187147 0.036697045 0.0)
(8.096385 0.040626965 0.0)
(7.9955583 0.045582116 0.0)
(7.883883 0.05110632 0.0)
(7.75886 0.058914043 0.0)
(7.6214676 0.06942359 0.0)
(7.459958 0.08268532 0.0)
(7.270864 0.1028328 0.0)
(9.391362 -0.0027395962 0.0)
(9.430173 -0.0021547645 0.0)
(9.423232 0.002346026 0.0)
(9.414497 0.0045017325 0.0)
(9.403869 0.0061317203 0.0)
(9.39141 0.0070006745 0.0)
(9.37608 0.0073714657 0.0)
(9.359328 0.0072361734 0.0)
(9.341773 0.0070405146 0.0)
(9.322395 0.006812835 0.0)
(9.302873 0.00730509 0.0)
(9.283414 0.008165468 0.0)
(9.261444 0.008893832 0.0)
(9.237371 0.009574208 0.0)
(9.211595 0.009878272 0.0)
(9.186701 0.010506196 0.0)
(9.159677 0.011244662 0.0)
(9.1301985 0.012244745 0.0)
(9.097488 0.013164048 0.0)
(9.063003 0.014330019 0.0)
(9.02644 0.015326001 0.0)
(8.986705 0.016342437 0.0)
(8.942807 0.017211836 0.0)
(8.896096 0.018224653 0.0)
(8.849507 0.019629426 0.0)
(8.800531 0.02123891 0.0)
(8.74674 0.023198623 0.0)
(8.689354 0.02546883 0.0)
(8.629382 0.02797317 0.0)
(8.563962 0.030340398 0.0)
(8.49143 0.032819327 0.0)
(8.415457 0.03583718 0.0)
(8.332368 0.039674014 0.0)
(8.241942 0.043904036 0.0)
(8.1419935 0.04927952 0.0)
(8.031243 0.055227887 0.0)
(7.9068975 0.06357087 0.0)
(7.7707515 0.074675694 0.0)
(7.612208 0.088989265 0.0)
(7.4262576 0.1103916 0.0)
(9.571142 -0.0025653364 0.0)
(9.557702 -0.0019926257 0.0)
(9.551639 0.002538139 0.0)
(9.542862 0.0047722165 0.0)
(9.532025 0.006436847 0.0)
(9.520291 0.0073699793 0.0)
(9.505723 0.007818725 0.0)
(9.489019 0.0077065416 0.0)
(9.4715805 0.007553915 0.0)
(9.452146 0.007371622 0.0)
(9.432495 0.00785796 0.0)
(9.413051 0.008751812 0.0)
(9.391255 0.00956286 0.0)
(9.367379 0.010308603 0.0)
(9.341426 0.0106414845 0.0)
(9.316081 0.011269867 0.0)
(9.289454 0.012088362 0.0)
(9.260522 0.0131790545 0.0)
(9.228322 0.014196027 0.0)
(9.194204 0.015416548 0.0)
(9.1583805 0.016494637 0.0)
(9.119618 0.017635837 0.0)
(9.076457 0.018669022 0.0)
(9.029793 0.019720905 0.0)
(8.983178 0.02116398 0.0)
(8.934142 0.022914426 0.0)
(8.880661 0.025023635 0.0)
(8.823638 0.027411735 0.0)
(8.764143 0.030046213 0.0)
(8.69959 0.03268667 0.0)
(8.627177 0.035347078 0.0)
(8.551217 0.0385669 0.0)
(8.468296 0.042681634 0.0)
(8.378268 0.047230393 0.0)
(8.279151 0.052974105 0.0)
(8.169624 0.059417747 0.0)
(8.0460005 0.0682212 0.0)
(7.911261 0.07998915 0.0)
(7.7551837 0.09516441 0.0)
(7.573003 0.1179303 0.0)
(9.653514 -0.0024859146 0.0)
(9.675026 -0.0018476351 0.0)
(9.669856 0.0027178815 0.0)
(9.661185 0.005059533 0.0)
(9.65015 0.006735856 0.0)
(9.63899 0.0077227894 0.0)
(9.625299 0.008259339 0.0)
(9.608798 0.008189686 0.0)
(9.591302 0.008085931 0.0)
(9.571798 0.00794805 0.0)
(9.551863 0.0084280595 0.0)
(9.532344 0.00935197 0.0)
(9.5105915 0.010238249 0.0)
(9.487174 0.011058168 0.0)
(9.461313 0.01143295 0.0)
(9.435512 0.012056349 0.0)
(9.408978 0.012935324 0.0)
(9.380575 0.014120583 0.0)
(9.349069 0.015245732 0.0)
(9.3153925 0.016510881 0.0)
(9.280281 0.017666545 0.0)
(9.24249 0.018948372 0.0)
(9.200112 0.020141233 0.0)
(9.153835 0.021250688 0.0)
(9.107346 0.022746861 0.0)
(9.058319 0.024622353 0.0)
(9.005188 0.026897464 0.0)
(8.94851 0.029389856 0.0)
(8.889314 0.03216726 0.0)
(8.825481 0.0350754 0.0)
(8.753258 0.03794984 0.0)
(8.677227 0.041375753 0.0)
(8.594573 0.045764524 0.0)
(8.505012 0.050632395 0.0)
(8.406772 0.05674601 0.0)
(8.298468 0.063677326 0.0)
(8.175896 0.072999924 0.0)
(8.042355 0.08532889 0.0)
(7.8891644 0.1015188 0.0)
(7.710476 0.12545562 0.0)
(9.80593 -0.0023500992 0.0)
(9.784259 -0.0017220416 0.0)
(9.77992 0.002889712 0.0)
(9.771501 0.005364576 0.0)
(9.760425 0.007034631 0.0)
(9.749719 0.008070702 0.0)
(9.73687 0.008693702 0.0)
(9.720756 0.008688029 0.0)
(9.703088 0.008630877 0.0)
(9.683593 0.008545948 0.0)
(9.663291 0.009024265 0.0)
(9.643505 0.009971624 0.0)
(9.621738 0.010927255 0.0)
(9.598879 0.011810427 0.0)
(9.573473 0.012250307 0.0)
(9.547253 0.0128703555 0.0)
(9.520581 0.013804153 0.0)
(9.492512 0.015065445 0.0)
(9.461759 0.016297234 0.0)
(9.428699 0.017617278 0.0)
(9.394245 0.018851765 0.0)
(9.35712 0.020245988 0.0)
(9.315858 0.02163176 0.0)
(9.27014 0.022812031 0.0)
(9.223826 0.024360945 0.0)
(9.174944 0.026380738 0.0)
(9.122073 0.028799228 0.0)
(9.065734 0.03141454 0.0)
(9.006655 0.034325346 0.0)
(8.943475 0.037496865 0.0)
(8.871708 0.0406246 0.0)
(8.795605 0.044243164 0.0)
(8.713312 0.0489232 0.0)
(8.624116 0.054088358 0.0)
(8.52675 0.06058247 0.0)
(8.419658 0.06799609 0.0)
(8.298354 0.07784407 0.0)
(8.166125 0.09076873 0.0)
(8.015174 0.10780479 0.0)
(7.8407764 0.13312209 0.0)
(9.877072 -0.0022938943 0.0)
(9.886248 -0.0016170517 0.0)
(9.882626 0.003051727 0.0)
(9.874648 0.005669364 0.0)
(9.8637295 0.007334828 0.0)
(9.853314 0.00840657 0.0)
(9.84101 0.009101612 0.0)
(9.825578 0.0091926595 0.0)
(9.807799 0.0091882255 0.0)
(9.788363 0.009162364 0.0)
(9.767736 0.009648569 0.0)
(9.747522 0.010609328 0.0)
(9.725761 0.011619419 0.0)
(9.703372 0.012550487 0.0)
(9.678682 0.013081701 0.0)
(9.652213 0.013715805 0.0)
(9.62526 0.014690021 0.0)
(9.5973015 0.016006004 0.0)
(9.56741 0.017350752 0.0)
(9.534985 0.018730212 0.0)
(9.501045 0.020037558 0.0)
(9.464451 0.021551857 0.0)
(9.424331 0.023116179 0.0)
(9.379285 0.024394741 0.0)
(9.333206 0.02601285 0.0)
(9.28455 0.028155694 0.0)
(9.231903 0.030737419 0.0)
(9.175752 0.033477586 0.0)
(9.116755 0.03651182 0.0)
(9.054199 0.039951798 0.0)
(8.98318 0.043333974 0.0)
(8.907221 0.047182657 0.0)
(8.825287 0.052114476 0.0)
(8.736358 0.057619747 0.0)
(8.639681 0.06443556 0.0)
(8.533916 0.072374 0.0)
(8.414037 0.08273087 0.0)
(8.283215 0.09624597 0.0)
(8.134279 0.11415506 0.0)
(7.9634175 0.14060739 0.0)
(10.011154 -0.0022064836 0.0)
(9.981513 -0.0015268917 0.0)
(9.978485 0.0032085162 0.0)
(9.971185 0.005969279 0.0)
(9.960613 0.007636857 0.0)
(9.950382 0.008747699 0.0)
(9.938384 0.009512536 0.0)
(9.923651 0.0097095845 0.0)
(9.905972 0.009767618 0.0)
(9.88662 0.009799571 0.0)
(9.865816 0.010307098 0.0)
(9.845075 0.011274532 0.0)
(9.823426 0.01232538 0.0)
(9.801435 0.013299793 0.0)
(9.777403 0.013927326 0.0)
(9.750999 0.01459769 0.0)
(9.723688 0.015611749 0.0)
(9.695791 0.016964614 0.0)
(9.666697 0.018402817 0.0)
(9.634944 0.019857122 0.0)
(9.601387 0.021255627 0.0)
(9.565048 0.022873575 0.0)
(9.525928 0.024605326 0.0)
(9.481649 0.02601168 0.0)
(9.435843 0.027698712 0.0)
(9.387457 0.029981235 0.0)
(9.334996 0.03273515 0.0)
(9.278858 0.035597794 0.0)
(9.220032 0.03876971 0.0)
(9.157971 0.042430535 0.0)
(9.088098 0.04612682 0.0)
(9.012495 0.050178476 0.0)
(8.9310665 0.055427138 0.0)
(8.842234 0.061224658 0.0)
(8.746325 0.068414584 0.0)
(8.641655 0.07680948 0.0)
(8.523617 0.08774973 0.0)
(8.394247 0.10184245 0.0)
(8.247 0.12061556 0.0)
(8.07983 0.14828314 0.0)
(10.0747385 -0.0021645147 0.0)
(10.071491 -0.0014432733 0.0)
(10.0690365 0.0033563687 0.0)
(10.062537 0.0062481267 0.0)
(10.052443 0.007943734 0.0)
(10.042324 0.009085462 0.0)
(10.030434 0.00991359 0.0)
(10.016232 0.010207719 0.0)
(9.999017 0.010349296 0.0)
(9.979763 0.010446813 0.0)
(9.958867 0.01098775 0.0)
(9.937722 0.011964124 0.0)
(9.916196 0.013037842 0.0)
(9.894462 0.014041614 0.0)
(9.870926 0.014770083 0.0)
(9.844919 0.015503808 0.0)
(9.817416 0.016559782 0.0)
(9.789448 0.017926449 0.0)
(9.761081 0.019441873 0.0)
(9.730078 0.020993428 0.0)
(9.696683 0.02247858 0.0)
(9.660474 0.024204778 0.0)
(9.622035 0.02609434 0.0)
(9.578507 0.02763599 0.0)
(9.533146 0.029408174 0.0)
(9.484936 0.031825647 0.0)
(9.432722 0.03475726 0.0)
(9.376529 0.037762836 0.0)
(9.317905 0.04104205 0.0)
(9.256304 0.04493148 0.0)
(9.187547 0.048906405 0.0)
(9.112662 0.053224053 0.0)
(9.031682 0.058746226 0.0)
(8.943168 0.06490282 0.0)
(8.847724 0.07237444 0.0)
(8.74422 0.08129287 0.0)
(8.627742 0.09272243 0.0)
(8.500329 0.10750362 0.0)
(8.354387 0.12703541 0.0)
(8.190358 0.15582559 0.0)
(10.136147 -0.0021231002 0.0)
(10.156047 -0.0013623224 0.0)
(10.154189 0.0034897355 0.0)
(10.148433 0.0064958306 0.0)
(10.138987 0.008259962 0.0)
(10.128974 0.0094290655 0.0)
(10.117133 0.010326772 0.0)
(10.103341 0.010704894 0.0)