/*--------------------------------*- C++ -*----------------------------------*    | =========                 |                                                 |
    | \      /  F ield         | OpenFOAM: The Open Source CFD Toolbox           |
    |  \    /   O peration     | Version:  v2006                                 |
    |   \  /    A nd           | Website:  www.openfoam.com                      |
    |    \/     M anipulation  |                                                 |
    \*---------------------------------------------------------------------------*/
    FoamFile
    {
        version     2.0;
        format      ascii;
        class       volScalarField;
        object      k;
    }
    // * * * * * * * * * * * * * * * * * * * * * * * * * * * * * * * * * * * * * //
    
    dimensions      [0 2 -2 0 0 0 0];
    
    internalField   uniform .16699;
    
boundaryField
{
    bottom
    {
        type            kLowReWallFunction;
        value           $internalField;

    }
    "(top|outlet)"
    {
        type            zeroGradient;
    }
    inlet
    {
        type            fixedValue;
		value 			nonuniform List<scalar> 
    
    132 (
        0.003958032090272496 0.010517286363679159 0.06780174625761015 0.21795721013761538 0.429811509312878 0.6285717340201022 0.7836903828621459 0.8996221965131647 0.9858574634394341 1.0506071738177205 1.100127513635868 1.1388916516023952 1.1699839867293937 1.1953551387084125 1.2163183671959275 1.2338217757229721 1.2485551065419245 1.2610538576763193 1.2717115784948168 1.280827944686101 1.288641835203458 1.295348493356125 1.3011077558547093 1.3060208732123966 1.3102049113727907 1.3137343719882761 1.3166805247351951 1.3190899703275092 1.3210241083625607 1.3225175447213013 1.3235783177679212 1.324266084991333 1.32458967212251 1.3245658246655865 1.32420876897518 1.3235325073549462 1.3225456539112592 1.3212604615282482 1.3196818593668547 1.317811601471609 1.3156501188783163 1.3132063406439318 1.310469821178105 1.3074512394347724 1.3041379905629187 1.3005324999109305 1.2966267394976012 1.292418908839975 1.287895088794786 1.283062629970018 1.2779003607658628 1.272395696207076 1.266553582093411 1.2603427213485452 1.2537722772882092 1.246821284435437 1.239471746813367 1.2317117145992469 1.223530784907784 1.2148904555221987 1.2058001878387754 1.1962287823461106 1.1861573555212572 1.17554186121186 1.1644049599747344 1.1526814632961 1.1403740133073634 1.1274065080675364 1.1137277649662851 1.0992318207025031 1.0838281505346654 1.067422737970101 1.0499585432438525 1.0313342853601333 1.0114912830925906 0.9903427139549701 0.9678077237714752 0.9437799271959284 0.9181616773681978 0.890809677845979 0.8615591613002272 0.830192185141471 0.7964339952485231 0.7599346832848688 0.7203143738685704 0.6772805750064873 0.6315762443845233 0.5846426179040922 0.5374514754690092 0.49106685696301416 0.44647420853059916 0.4040094415903621 0.3630601446202918 0.32346564638990205 0.2859949726732116 0.2516112557872576 0.22130404949087365 0.1958447140562316 0.17555105954333997 0.1601875333056335 0.14905845596890524 0.14126540137824692 0.13593483867431289 0.13233124338521476 0.1299014284111163 0.1283059606275671 0.12733707752231982 0.12677959488182564 0.12648527210483052 0.12636277182148795 0.1263579197430096 0.1264304253622333 0.1265562170546283 0.12671649690958747 0.12689776006265216 0.12709018438211808 0.12728575226662592 0.12747869000425457 0.12766284012355775 0.12783646379156574 0.12799656636713494 0.12814058303731704 0.1282680208994487 0.1283794717730454 0.12847303876106994 0.12855061941851048 0.12861330618952518 0.12866141143494605 0.12869734696487045 0.12872270401092797 0.1287392718654394 0.128747 );
    }
     
    }
    // ************************************************************************* //