/*--------------------------------*- C++ -*----------------------------------*    | =========                 |                                                 |
    | \      /  F ield         | OpenFOAM: The Open Source CFD Toolbox           |
    |  \    /   O peration     | Version:  v2006                                 |
    |   \  /    A nd           | Website:  www.openfoam.com                      |
    |    \/     M anipulation  |                                                 |
    \*---------------------------------------------------------------------------*/
    FoamFile
    {
        version     2.0;
        format      ascii;
        class       volScalarField;
        object      epsilon;
    }
    // * * * * * * * * * * * * * * * * * * * * * * * * * * * * * * * * * * * * * //
    
dimensions      [ 0 0 -1 0 0 0 0 ];

internalField   uniform 17.764;

boundaryField
{
    bottom
    {
        type            omegaWallFunction;
		value			$internalField;
    }
    "(top|outlet)"
    {
        type            zeroGradient;
    }
    inlet
    {
        type            fixedValue;
		value			nonuniform List<scalar>
    
    132 (
        3261899.632038606 507391.8678882337 132666.39558016477 65234.37820951239 41674.21584185662 30031.19429429673 23017.995097829935 18329.315198513195 15001.686031756371 12548.572019156354 10688.807041116906 9244.651863028937 8096.020639950316 7163.923233939309 6394.824467721707 5751.193540330447 5205.80486875001 4738.702055251143 4334.908542212931 3982.8319994476255 3673.610238359695 3400.1672204504052 3156.9360149407535 2939.434228311496 2743.9463103641997 2567.4852907294876 2407.545963634888 2262.028825017212 2129.2153305768707 2007.5838205515915 1895.8751234471003 1793.0217433450825 1698.0748249879678 1610.2187197891333 1528.7681771819362 1453.0960443964389 1382.6609579280369 1316.9882059812662 1255.6671656376786 1198.313722031713 1144.5920256579368 1094.208059892086 1046.9171870157481 1002.4425548409894 960.6063119529973 921.1947840369514 884.0383763548969 848.9746165727472 815.8646921680638 784.5733195289022 754.9820981675927 726.9809288969277 700.4705825508804 675.3592220623208 651.5638985169362 629.0031180469952 607.6126235830599 587.3239828684605 568.0731505912566 549.8136928381897 532.4837510689113 516.0449661900216 500.45368588430006 485.6643571983442 471.64561928930897 458.3622530047981 445.7860343785078 433.86868914801454 422.55012525039206 411.76124306893814 401.46080810448507 391.601989361425 382.1465847382947 373.0599233772532 364.3084011952873 355.85700386046244 347.6701656713793 339.7048613918292 331.92043629572754 324.25717972624244 316.6477531212232 309.0009080041083 301.1962456909153 293.07024914922516 284.4155920147213 275.00798637333907 265.18523093114453 255.28500048514655 245.05962799965369 234.37245024178603 223.27553026295408 211.8057668241332 199.6677371617847 186.45138232066063 171.94756050018674 156.112503088681 139.180451275163 121.74128237766357 104.68126192904514 88.94484653135973 75.21452762470379 63.74598176119349 54.39099164613748 46.67181987046303 39.88163640408729 33.810048886284335 29.217589789409015 25.93361339469222 23.498718488587713 21.64273955960763 20.197709680470005 19.05434583567712 18.13848126846465 17.39839456022639 16.796544626719427 16.30526476893706 15.903575406772267 15.57507399416545 15.306992012356691 15.088965984575971 14.912388361714234 14.770454024503636 14.657179947826515 14.567701043067071 14.497639226174996 14.443715397059194 14.40266545945857 14.372122862672839 14.349968379773022 14.334632390664245 14.325043722910781 14.320600000000002 );
    }
    
    }
    // ************************************************************************* //