/*--------------------------------*- C++ -*----------------------------------*    | =========                 |                                                 |
    | \      /  F ield         | OpenFOAM: The Open Source CFD Toolbox           |
    |  \    /   O peration     | Version:  v2006                                 |
    |   \  /    A nd           | Website:  www.openfoam.com                      |
    |    \/     M anipulation  |                                                 |
    \*---------------------------------------------------------------------------*/
    FoamFile
    {
        version     2.0;
        format      ascii;
        class       volVectorField;
        object      U;
    }
    // * * * * * * * * * * * * * * * * * * * * * * * * * * * * * * * * * * * * * //
    
    dimensions      [0 1 -1 0 0 0 0];
    
    internalField   uniform (16.683 0 0);
    
    boundaryField
    {
    bottom
    {
        type            noSlip;
    }
    "(top|outlet)"
    {
        type            zeroGradient;
    }
    inlet
    {
        type            fixedValue;
		value 			nonuniform List<vector>
    
    132 (
        ( 0.4034304042067718 2.918409150908757e-07 0.0 ) ( 1.4913892284570467 3.512822546401041e-06 0.0 ) ( 2.6033777969120897 1.0776337346639377e-05 0.0 ) ( 3.6835909325953975 2.227480407300848e-05 0.0 ) ( 4.632523712337363 3.71277450724687e-05 0.0 ) ( 5.4036591831681555 5.4284993172572054e-05 0.0 ) ( 6.023970882171444 7.322687601682799e-05 0.0 ) ( 6.533715496947294 9.380408758433888e-05 0.0 ) ( 6.960662890886527 0.00011582905677009267 0.0 ) ( 7.324559342363384 0.00013923353865337405 0.0 ) ( 7.639975878711709 0.0001639883344347627 0.0 ) ( 7.918104412218347 0.00019009008808899204 0.0 ) ( 8.167661803709905 0.00021759556643922686 0.0 ) ( 8.394457392887844 0.00024653301518691846 0.0 ) ( 8.602569875822407 0.0002769344110097293 0.0 ) ( 8.795119045562744 0.0003088408416431253 0.0 ) ( 8.974554685605124 0.00034230578006970625 0.0 ) ( 9.14280495336425 0.0003773757481052618 0.0 ) ( 9.301385533286226 0.00041410106302389486 0.0 ) ( 9.451614163044605 0.00045254916290787123 0.0 ) ( 9.59450645081642 0.0004927766689999863 0.0 ) ( 9.73094704105127 0.000534856632274879 0.0 ) ( 9.861667220647764 0.0005788584607739207 0.0 ) ( 9.9872937066947 0.0006248507519668193 0.0 ) ( 10.108361006618923 0.0006729216055713863 0.0 ) ( 10.225267595393028 0.0007231483213995473 0.0 ) ( 10.33850471170156 0.0007756218067865219 0.0 ) ( 10.448446763593358 0.0008304379866737517 0.0 ) ( 10.5553205490941 0.0008876821798311303 0.0 ) ( 10.659398634377144 0.0009474712415753783 0.0 ) ( 10.760885602830172 0.0010099132991031967 0.0 ) ( 10.860163368872547 0.0010751067156156105 0.0 ) ( 10.957289239888983 0.0011431843886031533 0.0 ) ( 11.052447002697626 0.0012142710602712052 0.0 ) ( 11.145831081832979 0.0012884989417877896 0.0 ) ( 11.237575904188938 0.001365992633089804 0.0 ) ( 11.327836763088136 0.0014469227501936546 0.0 ) ( 11.416763917990654 0.0015314347999334985 0.0 ) ( 11.504296225255384 0.00161969478709618 0.0 ) ( 11.590694262254441 0.0017118660278557824 0.0 ) ( 11.675998238205569 0.001808124076772405 0.0 ) ( 11.760406924901165 0.00190867878674713 0.0 ) ( 11.843881411399435 0.0020137267251629344 0.0 ) ( 11.926535430842895 0.0021234725512496127 0.0 ) ( 12.008404831273086 0.002238149200564387 0.0 ) ( 12.08963987166401 0.002357987446008848 0.0 ) ( 12.170129874892947 0.0024832428380292967 0.0 ) ( 12.250200768212707 0.0026141865064853685 0.0 ) ( 12.329789684432129 0.002751080568786993 0.0 ) ( 12.40888529175996 0.0028942574366406337 0.0 ) ( 12.487641779499684 0.0030439960915499714 0.0 ) ( 12.566092453880712 0.003200654354900773 0.0 ) ( 12.644203580473466 0.003364587154549914 0.0 ) ( 12.722183843777739 0.0035361647771383624 0.0 ) ( 12.800027262373398 0.0037157815874404626 0.0 ) ( 12.877755236140244 0.003903903915434686 0.0 ) ( 12.95530817867322 0.004100917403455279 0.0 ) ( 13.032961607067065 0.004307338608985212 0.0 ) ( 13.110578858045496 0.004523739892884381 0.0 ) ( 13.188345215118765 0.004750548823309923 0.0 ) ( 13.26621461383401 0.004988477124486519 0.0 ) ( 13.344302196677909 0.00523806761268701 0.0 ) ( 13.422592292632098 0.00549997021041147 0.0 ) ( 13.501219727300896 0.005775007579756762 0.0 ) ( 13.580187114926131 0.006063824994404122 0.0 ) ( 13.659525836099716 0.006367291052096047 0.0 ) ( 13.739314806096358 0.0066862992966784975 0.0 ) ( 13.819835675204121 0.007022455082100053 0.0 ) ( 13.901068197649483 0.007377725134271239 0.0 ) ( 13.983519373424958 0.007754134275084365 0.0 ) ( 14.067093152141533 0.008152986930344436 0.0 ) ( 14.15189192457052 0.008575664078349081 0.0 ) ( 14.237978967335872 0.009023461402932165 0.0 ) ( 14.325197399560958 0.009497643507698113 0.0 ) ( 14.41377694466321 0.009999488038685896 0.0 ) ( 14.503648699708425 0.010530485376997037 0.0 ) ( 14.594726068334394 0.011092356322712429 0.0 ) ( 14.687321140480453 0.011687152487056405 0.0 ) ( 14.781247389440267 0.012316896240419057 0.0 ) ( 14.876903388405855 0.012984324953688403 0.0 ) ( 14.974336248989617 0.013692820582282763 0.0 ) ( 15.073704483893263 0.014446293469776076 0.0 ) ( 15.17549449581447 0.01524934970353801 0.0 ) ( 15.279913964129502 0.01610788822883233 0.0 ) ( 15.387389809115179 0.01702746030164045 0.0 ) ( 15.497811180677408 0.018011559192199534 0.0 ) ( 15.61049128314288 0.01905622959653057 0.0 ) ( 15.723263546799439 0.020143910144164254 0.0 ) ( 15.833234930285377 0.021247068013699053 0.0 ) ( 15.937808847510995 0.022336702449725163 0.0 ) ( 16.03533835665083 0.023388762898764782 0.0 ) ( 16.126058855633516 0.024404820983844673 0.0 ) ( 16.21206912604389 0.025408978179074015 0.0 ) ( 16.29438124487503 0.026411210397078434 0.0 ) ( 16.37157633154237 0.027388400146398727 0.0 ) ( 16.442319278443282 0.02831972574907465 0.0 ) ( 16.505037911581166 0.029179844545048114 0.0 ) ( 16.558677947633612 0.02994556081474598 0.0 ) ( 16.602668310204297 0.0306011930840419 0.0 ) ( 16.63739114493879 0.031143683751402265 0.0 ) ( 16.66398659450335 0.03158168135517075 0.0 ) ( 16.68393633257367 0.03193127854563648 0.0 ) ( 16.69883797679054 0.032210474366069185 0.0 ) ( 16.709874673391113 0.0324351927014178 0.0 ) ( 16.718034642139603 0.032617518505128625 0.0 ) ( 16.72400892224766 0.032766126771494784 0.0 ) ( 16.728423366044748 0.03288967541742894 0.0 ) ( 16.731761125571243 0.03299598031401695 0.0 ) ( 16.734151607147457 0.03308974521944571 0.0 ) ( 16.736039614022346 0.033173602787781385 0.0 ) ( 16.73739198046607 0.033249874828163994 0.0 ) ( 16.738430004223837 0.03331968582025647 0.0 ) ( 16.739122336661698 0.033383906311273616 0.0 ) ( 16.739522588507608 0.03344344570551052 0.0 ) ( 16.739762497297555 0.03349844923651876 0.0 ) ( 16.739732130363638 0.03354942949478032 0.0 ) ( 16.739591242796443 0.033596725835639496 0.0 ) ( 16.739242156010274 0.03364031663727602 0.0 ) ( 16.738789152941074 0.033680443568170425 0.0 ) ( 16.73816747754323 0.03371737739236305 0.0 ) ( 16.737513214456904 0.033751055401787966 0.0 ) ( 16.736774787545325 0.033781681632745156 0.0 ) ( 16.735973500005937 0.03380928888009122 0.0 ) ( 16.735140136394147 0.033834059936712124 0.0 ) ( 16.734272375767855 0.03385621661585494 0.0 ) ( 16.73348166917862 0.033875723648524786 0.0 ) ( 16.73267852410822 0.033893055910498106 0.0 ) ( 16.731952688299508 0.03390814440984495 0.0 ) ( 16.731292869668472 0.03392154276751821 0.0 ) ( 16.730792663169023 0.03393328641321505 0.0 ) ( 16.730390300375646 0.03394361748639662 0.0 ) ( 16.7302 0.0339555125 0.0 ));
    }
           

     
    }
    // ************************************************************************* //