/*--------------------------------*- C++ -*----------------------------------*\
| =========                 |                                                 |
| \\      /  F ield         | OpenFOAM: The Open Source CFD Toolbox           |
|  \\    /   O peration     | Version:  2506                                  |
|   \\  /    A nd           | Website:  www.openfoam.com                      |
|    \\/     M anipulation  |                                                 |
\*---------------------------------------------------------------------------*/
FoamFile
{
    version     2.0;
    format      ascii;
    arch        "LSB;label=32;scalar=64";
    class       volScalarField;
    location    "0";
    object      k;
}
// * * * * * * * * * * * * * * * * * * * * * * * * * * * * * * * * * * * * * //

dimensions      [0 2 -2 0 0 0 0];

internalField   nonuniform List<scalar> 
18004
(
0.026514
0.0261637
0.0257974
0.0254155
0.0250185
0.024607
0.0241814
0.0237423
0.0232901
0.0228256
0.0223463
0.0218523
0.0213452
0.0208265
0.0202977
0.0197594
0.0192122
0.0186569
0.0180938
0.0175238
0.0169472
0.0163648
0.0157771
0.0151846
0.0145881
0.0139881
0.0133852
0.0127801
0.0121734
0.0115663
0.0109568
0.0103452
0.00973365
0.00912452
0.00851951
0.00792004
0.0073275
0.00674372
0.00616887
0.0056041
0.0050519
0.00451565
0.00399804
0.00350115
0.00302802
0.00258194
0.00216601
0.00178354
0.00143738
0.00113019
0.000863753
0.000639104
0.000455914
0.000312538
0.000205625
0.000130339
8.67581e-05
0.000109946
0.000141317
0.000177313
0.000215371
0.000252651
0.00028658
0.000315298
0.000337823
0.000353961
0.000364167
0.000369113
0.000369493
0.000366355
0.000360576
0.000352902
0.000344074
0.000334599
0.000324901
0.000315235
0.0003058
0.000296737
0.000288149
0.000280086
0.000272541
0.00026541
0.000258612
0.000252037
0.000245596
0.000239235
0.000232836
0.000226368
0.000219767
0.000213006
0.000206109
0.000199108
0.000192058
0.000185027
0.000178073
0.000171237
0.000164557
0.00015806
0.000151765
0.00014569
0.000139836
0.000134203
0.000128781
0.0196615
0.0197625
0.0198446
0.0199078
0.0199519
0.0199771
0.0199834
0.0199708
0.0199395
0.0198892
0.0198111
0.0197072
0.0195814
0.019436
0.0192719
0.0190898
0.0188902
0.0186738
0.0184409
0.018192
0.0179277
0.0176483
0.0173543
0.0170461
0.0167243
0.0163892
0.0160414
0.0156814
0.0153096
0.0149258
0.0145211
0.0141005
0.0136684
0.0132268
0.0127769
0.0123194
0.0118551
0.0113842
0.0109018
0.0104104
0.00991405
0.00941516
0.00891286
0.00840705
0.00790132
0.00739695
0.00689577
0.00640075
0.00591375
0.00543818
0.00497621
0.00453127
0.00410552
0.00370194
0.00332221
0.0029684
0.00264229
0.00235082
0.00208657
0.00184892
0.00163743
0.00145116
0.00128848
0.00114728
0.00102524
0.000920292
0.000830304
0.000753119
0.000686412
0.00062847
0.000577898
0.000533528
0.000494609
0.000460443
0.000430466
0.000404118
0.000380949
0.000360552
0.000342588
0.000326744
0.000312674
0.000299992
0.000288305
0.000277249
0.000266481
0.000255749
0.000244815
0.000233546
0.000221875
0.000209812
0.000197453
0.000184954
0.000172503
0.000160303
0.000148542
0.000137372
0.000126905
0.000117214
0.000108333
0.000100264
9.2983e-05
8.64433e-05
8.05887e-05
0.113036
0.114127
0.1151
0.115956
0.116693
0.117311
0.11781
0.11819
0.118451
0.118589
0.118545
0.118334
0.117982
0.117502
0.1169
0.116179
0.115343
0.114396
0.113339
0.112175
0.110907
0.109538
0.108069
0.106503
0.104843
0.103092
0.101251
0.0993241
0.097314
0.0952166
0.0929711
0.090613
0.0881705
0.0856561
0.0830758
0.0804336
0.0777339
0.0749755
0.0721228
0.0691929
0.0662125
0.0631949
0.0601311
0.0570181
0.0538786
0.0507184
0.0475474
0.0443838
0.041238
0.0381319
0.0350796
0.0321048
0.0292237
0.0264598
0.0238287
0.0213509
0.0190395
0.0169091
0.0149662
0.0132097
0.0116398
0.0102529
0.00903989
0.00798757
0.00708031
0.00630329
0.00564073
0.00507634
0.00459257
0.00417596
0.0038155
0.00350177
0.00322872
0.00299082
0.00278354
0.00260255
0.00244436
0.00230589
0.00218457
0.00207808
0.00198392
0.00189939
0.00182177
0.00174851
0.00167722
0.00160613
0.00153363
0.00145879
0.00138118
0.0013009
0.0012186
0.00113537
0.00105252
0.000971445
0.000893443
0.000819575
0.00075062
0.000687082
0.000629193
0.000576958
0.000530189
0.000488566
0.000451687
0.380061
0.383939
0.387446
0.390579
0.393335
0.395711
0.397707
0.399321
0.400555
0.401395
0.401639
0.401339
0.400587
0.399419
0.397851
0.395895
0.393559
0.390853
0.387781
0.384353
0.380574
0.37645
0.371988
0.367194
0.362073
0.356633
0.350881
0.344822
0.338467
0.331798
0.3246
0.317001
0.309092
0.30091
0.292473
0.283791
0.274876
0.265723
0.256201
0.246371
0.236323
0.226098
0.215661
0.204998
0.194189
0.18325
0.172213
0.161144
0.150077
0.139092
0.128241
0.117612
0.107266
0.0972958
0.0877629
0.0787491
0.0703091
0.0624982
0.0553555
0.0488885
0.0430908
0.0379601
0.0334676
0.0295669
0.0262021
0.0233194
0.0208612
0.0187675
0.0169733
0.0154288
0.014093
0.0129311
0.0119197
0.0110382
0.0102705
0.00960046
0.00901509
0.00850283
0.00805419
0.00766049
0.00731253
0.00700032
0.00671373
0.00644342
0.0061805
0.00591842
0.00565119
0.00537533
0.00508924
0.00479323
0.0044897
0.00418264
0.0038769
0.0035776
0.00328957
0.00301673
0.002762
0.00252725
0.00231336
0.00212037
0.0019476
0.00179387
0.00165771
0.800881
0.809424
0.817281
0.824445
0.830909
0.83667
0.841722
0.846064
0.849696
0.85259
0.854321
0.855028
0.854884
0.853948
0.852247
0.849796
0.846609
0.842696
0.838066
0.832727
0.826686
0.819949
0.812524
0.804413
0.795624
0.786163
0.776035
0.765247
0.753808
0.741675
0.728368
0.714183
0.699283
0.683725
0.66753
0.650709
0.633275
0.615197
0.59617
0.576325
0.555836
0.53477
0.513017
0.490535
0.467483
0.44387
0.419752
0.395259
0.370454
0.345514
0.320551
0.295779
0.271353
0.247513
0.224436
0.20236
0.18146
0.16192
0.143888
0.127432
0.112593
0.0993674
0.0877229
0.0775739
0.0687934
0.0612543
0.0548148
0.0493239
0.0446155
0.0405604
0.0370525
0.0340005
0.0313441
0.0290288
0.02701
0.0252472
0.0237073
0.0223599
0.02118
0.0201448
0.01923
0.0184094
0.0176566
0.016947
0.0162572
0.0155699
0.0148693
0.0141462
0.0133961
0.0126197
0.0118233
0.0110172
0.0102141
0.00942741
0.00866991
0.00795197
0.00728129
0.00666292
0.00609927
0.0055905
0.00513489
0.00472939
0.00437014
1.2294
1.24313
1.25594
1.26783
1.2788
1.28882
1.29791
1.30604
1.31322
1.31941
1.32399
1.3272
1.32927
1.33028
1.33024
1.32918
1.32711
1.32405
1.31999
1.31494
1.30891
1.3019
1.29392
1.28496
1.27502
1.26411
1.25223
1.23937
1.22554
1.21068
1.19401
1.17606
1.15699
1.13688
1.11572
1.09352
1.07028
1.04592
1.01993
0.992516
0.963909
0.934155
0.903026
0.87041
0.836529
0.801309
0.764784
0.727103
0.688287
0.648576
0.608082
0.567127
0.525929
0.484895
0.444344
0.404739
0.366467
0.329966
0.295636
0.263746
0.234529
0.208138
0.184593
0.163812
0.145674
0.129991
0.116519
0.104982
0.0950574
0.0864891
0.0790629
0.0725927
0.0669545
0.0620355
0.0577441
0.0539939
0.0507123
0.0478382
0.0453208
0.0431116
0.0411596
0.0394091
0.0378041
0.0362921
0.0348234
0.0333609
0.0318705
0.030332
0.0287356
0.0270825
0.0253853
0.023666
0.0219512
0.0202698
0.018649
0.0171112
0.0156733
0.0143463
0.0131357
0.0120422
0.0110623
0.0101898
0.00941637
1.57265
1.59079
1.6079
1.62395
1.63894
1.65284
1.66566
1.67738
1.68799
1.69748
1.70553
1.71218
1.71755
1.72168
1.72462
1.72636
1.72693
1.72634
1.72458
1.72167
1.71759
1.71236
1.70598
1.69842
1.6897
1.67981
1.66875
1.65651
1.64308
1.62839
1.61153
1.59313
1.57338
1.55232
1.52995
1.50624
1.48119
1.4547
1.42607
1.39562
1.36356
1.3299
1.29429
1.25657
1.21699
1.17534
1.13161
1.08591
1.03815
0.98856
0.937156
0.884272
0.830067
0.775013
0.719447
0.663981
0.60914
0.555602
0.504046
0.455015
0.409064
0.36666
0.328088
0.29344
0.262593
0.235547
0.212041
0.191712
0.174085
0.15877
0.145427
0.133752
0.123541
0.114606
0.106792
0.0999478
0.0939491
0.0886863
0.0840693
0.0800078
0.0764166
0.0731954
0.0702428
0.067463
0.0647651
0.0620799
0.059344
0.0565196
0.0535867
0.0505465
0.047421
0.0442494
0.0410808
0.0379679
0.0349615
0.0321038
0.0294269
0.0269525
0.0246918
0.022647
0.0208125
0.0191772
0.0177264
1.82465
1.84671
1.86767
1.88753
1.90625
1.92383
1.94026
1.95552
1.9696
1.98248
1.99395
2.00399
2.01267
2.02002
2.02607
2.03084
2.03433
2.03655
2.0375
2.03719
2.0356
2.03275
2.02861
2.02319
2.01648
2.00847
1.99916
1.98853
1.97658
1.96323
1.94809
1.93133
1.91306
1.89332
1.87209
1.84935
1.82507
1.79914
1.77083
1.74049
1.7083
1.67423
1.63786
1.59899
1.55789
1.51422
1.46793
1.41908
1.36745
1.31327
1.25638
1.1971
1.13544
1.07187
1.00663
0.94036
0.873583
0.807091
0.741723
0.678213
0.617395
0.560054
0.506793
0.457995
0.413804
0.374169
0.33918
0.308499
0.281575
0.257944
0.237172
0.218857
0.202733
0.188541
0.176066
0.165092
0.155436
0.146936
0.139456
0.132862
0.127019
0.121773
0.116957
0.11242
0.10802
0.103643
0.0991828
0.0945762
0.089787
0.0848141
0.0796903
0.0744773
0.0692542
0.064107
0.0591204
0.0543657
0.0498986
0.0457579
0.0419651
0.0385265
0.0354352
0.0326744
0.0302211
1.99548
2.02104
2.04551
2.06886
2.09109
2.11216
2.13207
2.15079
2.16832
2.18464
2.19958
2.2131
2.22523
2.23599
2.24541
2.2535
2.26026
2.2657
2.26981
2.2726
2.27406
2.27418
2.27296
2.27039
2.26646
2.26116
2.25447
2.2464
2.23692
2.22598
2.21327
2.19885
2.18282
2.16521
2.14599
2.12513
2.10261
2.07831
2.05192
2.02346
1.99299
1.96046
1.92545
1.88777
1.84764
1.80464
1.7587
1.70983
1.6577
1.60249
1.54393
1.48229
1.41742
1.34974
1.27934
1.20684
1.13268
1.05768
0.982709
0.908604
0.836384
0.767077
0.701556
0.640485
0.584291
0.533167
0.487133
0.446208
0.40986
0.377613
0.348988
0.323525
0.300926
0.280886
0.263153
0.247457
0.233572
0.221288
0.210429
0.200819
0.192279
0.184592
0.177529
0.170876
0.164422
0.15799
0.151434
0.144658
0.137601
0.130256
0.122665
0.114912
0.107113
0.0993927
0.091879
0.0846821
0.0778902
0.0715679
0.065754
0.060464
0.0556926
0.0514189
0.0476114
2.10074
2.12945
2.15712
2.18372
2.20922
2.2336
2.25684
2.27893
2.29983
2.31954
2.33794
2.35496
2.3706
2.38487
2.39779
2.40937
2.41961
2.4285
2.43605
2.44226
2.44711
2.4506
2.45271
2.45345
2.45279
2.45073
2.44725
2.44235
2.436
2.42817
2.4186
2.40729
2.3943
2.37966
2.36335
2.34534
2.32558
2.30399
2.28027
2.25439
2.22638
2.19618
2.16357
2.1284
2.09063
2.04984
2.00597
1.95894
1.90834
1.85435
1.79653
1.73513
1.66984
1.60104
1.52863
1.45319
1.37502
1.2949
1.2137
1.13225
1.0517
0.973244
0.897979
0.826818
0.760457
0.699341
0.643702
0.593457
0.54838
0.508047
0.471956
0.439614
0.410709
0.384907
0.361932
0.341476
0.32328
0.307097
0.292723
0.279948
0.26855
0.258264
0.248798
0.239876
0.231222
0.222601
0.213814
0.204704
0.195198
0.185277
0.174987
0.164432
0.15376
0.143139
0.132743
0.122727
0.113219
0.10432
0.0960934
0.0885709
0.0817554
0.0756257
0.0701445
2.15492
2.18645
2.21702
2.24659
2.27513
2.30262
2.32903
2.35433
2.3785
2.40152
2.4233
2.44378
2.46293
2.48073
2.4972
2.51235
2.52616
2.53863
2.54977
2.55956
2.568
2.57507
2.58077
2.58508
2.588
2.5895
2.58958
2.58823
2.58542
2.58113
2.57516
2.56746
2.55806
2.54697
2.53419
2.51968
2.5034
2.48527
2.46501
2.44255
2.41787
2.39093
2.36152
2.32945
2.29464
2.25691
2.21612
2.17201
2.12423
2.07284
2.01731
1.95787
1.89403
1.82613
1.75389
1.67783
1.59808
1.51534
1.43043
1.34411
1.25762
1.17224
1.08926
1.0098
0.934812
0.865004
0.800835
0.742402
0.689325
0.641527
0.598511
0.559764
0.524965
0.493755
0.465837
0.440869
0.418566
0.398647
0.380884
0.365036
0.350851
0.338016
0.326191
0.315039
0.304227
0.293466
0.282499
0.27113
0.259246
0.246794
0.233835
0.220486
0.206921
0.193344
0.179972
0.167008
0.154623
0.142956
0.132104
0.122124
0.113033
0.104816
0.0974346
2.17047
2.20449
2.23766
2.26992
2.30126
2.33162
2.36098
2.38931
2.41658
2.44276
2.46779
2.4916
2.51414
2.5354
2.55537
2.57404
2.59141
2.60747
2.62222
2.63565
2.64775
2.65849
2.66788
2.67589
2.68252
2.68776
2.69159
2.69399
2.69496
2.69447
2.69236
2.68856
2.68308
2.67591
2.66705
2.65647
2.64412
2.62993
2.61366
2.5952
2.5745
2.55152
2.52604
2.49785
2.46684
2.43282
2.39559
2.355
2.31084
2.2629
2.21071
2.15436
2.09325
2.02769
1.95718
1.88221
1.80268
1.71925
1.63257
1.54336
1.45282
1.36232
1.27325
1.18694
1.10455
1.02707
0.955186
0.889231
0.828891
0.774047
0.724477
0.679669
0.639294
0.602972
0.570386
0.541158
0.514978
0.491531
0.470563
0.451805
0.434974
0.419719
0.405655
0.392394
0.379551
0.366786
0.35379
0.340326
0.326247
0.311478
0.296054
0.280099
0.263815
0.247433
0.231209
0.215382
0.200169
0.185746
0.172247
0.159758
0.148315
0.137917
0.128531
2.15686
2.19298
2.22838
2.26299
2.29679
2.32973
2.36177
2.39287
2.423
2.45213
2.48021
2.50716
2.53295
2.55752
2.58086
2.60297
2.62382
2.64341
2.66174
2.67878
2.69452
2.70895
2.72206
2.73382
2.74423
2.75327
2.76094
2.76721
2.77208
2.77551
2.77741
2.77769
2.77632
2.77329
2.76859
2.7622
2.75407
2.74413
2.7322
2.71812
2.70183
2.68327
2.66225
2.63853
2.61199
2.58237
2.54948
2.51311
2.47301
2.429
2.38084
2.3283
2.27086
2.20865
2.14105
2.06845
1.99057
1.90795
1.82111
1.73061
1.63764
1.54356
1.44982
1.35788
1.26915
1.18484
1.10591
1.03291
0.965729
0.904248
0.848312
0.797613
0.751821
0.71054
0.673434
0.640092
0.610177
0.583339
0.559295
0.537748
0.518385
0.500818
0.484621
0.469365
0.454613
0.439978
0.425107
0.409722
0.39364
0.376767
0.359121
0.340825
0.322069
0.303122
0.284267
0.26578
0.247911
0.230874
0.214836
0.199913
0.186165
0.173608
0.162217
2.12115
2.15894
2.19615
2.23273
2.26862
2.30379
2.33819
2.37176
2.40448
2.43631
2.46718
2.49706
2.52586
2.55356
2.58011
2.6055
2.6297
2.65271
2.67452
2.6951
2.71443
2.7325
2.74928
2.76478
2.77896
2.79183
2.80336
2.81355
2.82237
2.8298
2.83577
2.8402
2.84305
2.84429
2.8439
2.84186
2.83812
2.83263
2.82524
2.81579
2.80419
2.79037
2.77416
2.75532
2.73369
2.70902
2.68107
2.6496
2.6143
2.57495
2.53126
2.48297
2.42985
2.37165
2.30785
2.23861
2.1635
2.08293
1.99725
1.90686
1.81287
1.71658
1.61945
1.52304
1.42894
1.33859
1.25319
1.17359
1.09983
1.032
0.969866
0.913319
0.862145
0.815941
0.774354
0.736939
0.703337
0.673157
0.646092
0.621809
0.599969
0.580147
0.561882
0.544699
0.528121
0.511715
0.495084
0.477911
0.459983
0.441181
0.42151
0.401086
0.380105
0.35884
0.337587
0.316662
0.296345
0.27688
0.258467
0.241247
0.225306
0.210676
0.197345
2.06889
2.10787
2.14644
2.18455
2.22214
2.25915
2.29553
2.33123
2.3662
2.40041
2.4338
2.46631
2.49788
2.52845
2.55799
2.58646
2.61384
2.6401
2.66524
2.68923
2.71204
2.73365
2.75404
2.7732
2.79111
2.80776
2.82313
2.83722
2.84999
2.86144
2.8715
2.88011
2.88721
2.89277
2.89676
2.89917
2.89993
2.89902
2.89629
2.89162
2.88489
2.87601
2.86483
2.85114
2.83474
2.81539
2.79283
2.76677
2.73689
2.70289
2.66441
2.62116
2.57281
2.51906
2.4597
2.39448
2.32305
2.24554
2.16214
2.07307
1.97932
1.88207
1.78276
1.68298
1.58446
1.48884
1.39758
1.31176
1.23169
1.15765
1.08953
1.02715
0.970549
0.919378
0.87327
0.831749
0.794436
0.7609
0.730804
0.703785
0.679472
0.657405
0.637089
0.618009
0.599645
0.581523
0.563203
0.544332
0.524667
0.504064
0.482513
0.460122
0.437092
0.413701
0.390265
0.367101
0.344523
0.32281
0.302185
0.282816
0.264811
0.248218
0.23304
2.00462
2.04427
2.0837
2.12286
2.16167
2.20008
2.23802
2.27544
2.3123
2.34852
2.38408
2.4189
2.45292
2.48608
2.51833
2.54963
2.57995
2.60926
2.63753
2.66475
2.69088
2.71589
2.73976
2.76247
2.78401
2.80436
2.8235
2.84142
2.8581
2.87353
2.88764
2.9004
2.91173
2.92162
2.93001
2.93689
2.94221
2.94592
2.94793
2.94811
2.94635
2.94254
2.93654
2.92816
2.9172
2.90341
2.88653
2.86626
2.84224
2.81414
2.78153
2.74407
2.7013
2.65288
2.59845
2.53774
2.47064
2.39694
2.31676
2.23006
2.13768
2.04065
1.94029
1.83822
1.73622
1.63612
1.53961
1.44803
1.36192
1.28181
1.20779
1.13967
1.07756
1.02134
0.970617
0.924909
0.883811
0.846856
0.813678
0.783879
0.757057
0.73272
0.710337
0.689355
0.669214
0.649398
0.629427
0.608911
0.587576
0.565257
0.541926
0.517684
0.492731
0.467352
0.441874
0.416636
0.391962
0.368147
0.34545
0.324062
0.304111
0.285662
0.268729
1.93223
1.97196
2.01169
2.05136
2.09088
2.1302
2.16924
2.20794
2.24624
2.28408
2.32141
2.35817
2.3943
2.42971
2.46436
2.49819
2.53117
2.56326
2.59443
2.62465
2.65388
2.6821
2.70927
2.73537
2.76039
2.78431
2.8071
2.82876
2.84926
2.86857
2.88668
2.90352
2.91904
2.9332
2.94597
2.95732
2.96719
2.97555
2.98232
2.98738
2.99063
2.99195
2.99122
2.98825
2.98285
2.97478
2.96377
2.94952
2.93167
2.90984
2.88359
2.8525
2.81603
2.77376
2.72516
2.66987
2.60759
2.53823
2.46191
2.37849
2.28852
2.19277
2.09246
1.98914
1.88464
1.78088
1.67977
1.58291
1.49107
1.40507
1.3252
1.25142
1.18379
1.12238
1.06693
1.01691
0.971924
0.931455
0.895111
0.862457
0.833065
0.806406
0.781915
0.759001
0.737067
0.715554
0.693941
0.671805
0.648841
0.624858
0.599815
0.573799
0.547012
0.519741
0.492326
0.465121
0.438468
0.41268
0.388022
0.36472
0.34292
0.322704
0.304098
1.85513
1.89431
1.93375
1.97334
2.01301
2.05271
2.09233
2.13182
2.1711
2.21011
2.24879
2.28707
2.32487
2.36214
2.39881
2.43482
2.47013
2.50469
2.53846
2.5714
2.60347
2.63465
2.6649
2.69419
2.72251
2.74982
2.77612
2.80136
2.82555
2.84865
2.87064
2.89147
2.91109
2.92946
2.94655
2.96231
2.97671
2.98971
3.00122
3.01117
3.01943
3.02591
3.03049
3.03298
3.03321
3.03095
3.02593
3.01786
3.00636
2.99107
2.97149
2.94718
2.91755
2.88209
2.84015
2.79124
2.73482
2.67064
2.59863
2.5191
2.43229
2.33881
2.23958
2.13604
2.02999
1.92343
1.81843
1.71681
1.61962
1.52793
1.44231
1.36287
1.28977
1.22306
1.16273
1.10827
1.05926
1.01516
0.975538
0.939935
0.907888
0.878833
0.852173
0.827281
0.803518
0.780286
0.757025
0.733273
0.708697
0.683081
0.656365
0.628629
0.600067
0.570972
0.541692
0.512596
0.484044
0.456365
0.429844
0.404708
0.381136
0.359225
0.339012
1.77647
1.81443
1.85291
1.8918
1.93101
1.97047
2.0101
2.0498
2.08952
2.12918
2.16871
2.20801
2.24703
2.28571
2.32397
2.36175
2.39899
2.43565
2.47168
2.50703
2.54165
2.57552
2.60859
2.64083
2.67222
2.70273
2.73233
2.76099
2.7887
2.81544
2.84117
2.86586
2.88946
2.91194
2.93324
2.95334
2.97219
2.98976
3.00598
3.02076
3.03402
3.04564
3.05552
3.06349
3.06938
3.07297
3.07401
3.07221
3.0672
3.0586
3.04593
3.02871
3.00632
2.97818
2.94356
2.90183
2.85228
2.79443
2.72792
2.65282
2.56965
2.47908
2.38188
2.27911
2.17247
2.06399
1.95584
1.85006
1.74793
1.65084
1.55957
1.47449
1.39593
1.3239
1.25853
1.19946
1.14628
1.09841
1.05539
1.01672
0.981916
0.950377
0.921473
0.894539
0.868898
0.843911
0.818977
0.7936
0.767413
0.740177
0.711812
0.682385
0.652088
0.621215
0.590121
0.559188
0.52879
0.499277
0.47095
0.444055
0.418768
0.395215
0.373447
1.69918
1.73519
1.77197
1.80944
1.8475
1.88605
1.92501
1.9643
2.00384
2.04355
2.08335
2.12316
2.16291
2.20251
2.24191
2.28102
2.31978
2.35815
2.39605
2.43344
2.47028
2.50652
2.5421
2.57701
2.6112
2.64465
2.67731
2.70917
2.7402
2.77038
2.79968
2.82806
2.85548
2.88191
2.90729
2.93161
2.95481
2.97685
2.99769
3.01724
3.03542
3.05214
3.06728
3.0807
3.09224
3.10169
3.10881
3.11332
3.11486
3.11307
3.10746
3.09753
3.08265
3.0622
3.0354
3.0015
2.95967
2.90919
2.84944
2.78009
2.7014
2.61416
2.51954
2.41846
2.31217
2.20266
2.09216
1.98288
1.87629
1.77411
1.67739
1.58672
1.50267
1.42532
1.35479
1.29095
1.23343
1.18162
1.13506
1.0932
1.05552
1.02139
0.990157
0.961105
0.933524
0.906733
0.880092
0.853067
0.825258
0.796401
0.766396
0.735297
0.703288
0.670665
0.63779
0.605055
0.57285
0.541542
0.511448
0.482831
0.455885
0.430732
0.407444
1.62594
1.65925
1.69358
1.72886
1.765
1.80191
1.8395
1.8777
1.91642
1.95555
1.99502
2.03475
2.07465
2.11465
2.15466
2.19461
2.23442
2.27404
2.31339
2.35242
2.39107
2.4293
2.46705
2.50428
2.54096
2.57704
2.61249
2.64728
2.68138
2.71477
2.74741
2.77927
2.81032
2.84051
2.86981
2.89817
2.92557
2.95197
2.9773
3.00151
3.02453
3.04625
3.06659
3.0854
3.10254
3.11781
3.13099
3.14181
3.14994
3.155
3.15653
3.15402
3.14685
3.13435
3.11572
3.09015
3.05668
3.01442
2.96255
2.90033
2.82759
2.74476
2.65308
2.55417
2.44915
2.3395
2.22747
2.11538
2.00489
1.898
1.79606
1.69991
1.61035
1.52765
1.45194
1.38313
1.3211
1.2652
1.21493
1.16973
1.12905
1.09222
1.05855
1.02729
0.997693
0.96904
0.940646
0.911939
0.882487
0.851998
0.82035
0.787583
0.753876
0.719519
0.684883
0.650369
0.616382
0.583303
0.551468
0.521155
0.492573
0.465859
0.441081
1.55903
1.58906
1.62031
1.65272
1.68623
1.72075
1.75621
1.79255
1.82967
1.86749
1.90595
1.94494
1.98437
2.02416
2.0642
2.10442
2.14474
2.18511
2.22541
2.26561
2.30563
2.34543
2.38494
2.42412
2.46291
2.50128
2.53918
2.57659
2.61347
2.64978
2.6855
2.7206
2.75503
2.78876
2.82176
2.85399
2.88541
2.91598
2.94566
2.97439
3.0021
3.02871
3.05413
3.07824
3.1009
3.12193
3.14112
3.15822
3.17291
3.18483
3.19354
3.19852
3.19917
3.1948
3.1846
3.16769
3.14308
3.10972
3.06659
3.0127
2.94741
2.87064
2.78315
2.68671
2.5834
2.4745
2.36178
2.24762
2.13383
2.02269
1.91582
1.81434
1.71932
1.6312
1.5503
1.47641
1.40967
1.34948
1.29534
1.24664
1.20282
1.16315
1.12693
1.09337
1.06168
1.0311
1.00089
0.970463
0.939336
0.907195
0.873893
0.839455
0.804049
0.767967
0.731579
0.695299
0.659543
0.624707
0.591145
0.559151
0.528949
0.500688
0.474448
1.49981
1.52628
1.55407
1.58317
1.6135
1.64502
1.67769
1.71145
1.74622
1.78196
1.81862
1.85608
1.89426
1.9331
1.97249
2.01234
2.05258
2.09311
2.13381
2.17465
2.21555
2.25643
2.29724
2.33792
2.37842
2.41868
2.45867
2.49833
2.53764
2.57656
2.61506
2.65309
2.69064
2.72765
2.7641
2.79995
2.83516
2.86971
2.90354
2.9366
2.96884
3.00019
3.03055
3.05983
3.08789
3.11458
3.13969
3.16299
3.1842
3.20294
3.21881
3.23131
3.23983
3.2437
3.24209
3.23411
3.2187
3.19474
3.16106
3.11644
3.05988
2.9908
2.90933
2.81669
2.71531
2.60762
2.49505
2.3796
2.26317
2.1483
2.03686
1.93025
1.82985
1.7363
1.65011
1.57112
1.49948
1.43482
1.37662
1.32425
1.27712
1.23449
1.1956
1.15962
1.12574
1.09315
1.06107
1.02887
0.996026
0.962203
0.927228
0.891106
0.853996
0.816185
0.778048
0.740004
0.702484
0.665898
0.630615
0.596946
0.56513
0.535329
0.507633
1.44816
1.47136
1.49577
1.52139
1.54825
1.57642
1.60587
1.63653
1.66839
1.70141
1.73554
1.77071
1.80685
1.84393
1.88186
1.92054
1.95992
1.99988
2.04033
2.08121
2.12241
2.16384
2.20543
2.24713
2.28886
2.33057
2.3722
2.41372
2.45508
2.49623
2.53715
2.5778
2.61813
2.65812
2.69773
2.73692
2.77567
2.81394
2.85168
2.88887
2.92543
2.96132
2.99645
3.03072
3.06404
3.09624
3.12715
3.15655
3.18417
3.20967
3.23266
3.25264
3.26905
3.2812
3.28828
3.28938
3.28343
3.26923
3.24552
3.21092
3.16413
3.10414
3.03048
2.94364
2.84548
2.73911
2.6272
2.51125
2.3929
2.27488
2.15928
2.04782
1.94217
1.84321
1.75167
1.66753
1.59087
1.52153
1.45908
1.40286
1.35226
1.3065
1.2648
1.22629
1.19011
1.15542
1.1214
1.08736
1.05276
1.01722
0.980543
0.942718
0.903891
0.864342
0.824448
0.784638
0.745351
0.707013
0.670008
0.634662
0.601231
0.569889
0.540737
1.40333
1.42347
1.44477
1.46721
1.49088
1.51574
1.5418
1.56909
1.59769
1.62757
1.65867
1.69099
1.72449
1.75911
1.79481
1.83152
1.86919
1.90774
1.94712
1.98723
2.02797
2.06927
2.11104
2.15319
2.19563
2.23826
2.28107
2.32399
2.36695
2.40993
2.45287
2.49574
2.53851
2.58113
2.62356
2.66578
2.70776
2.74946
2.79085
2.83189
2.87253
2.91272
2.9524
2.99147
3.02985
3.06739
3.10394
3.13929
3.17319
3.20534
3.23534
3.26275
3.287
3.30742
3.32323
3.3335
3.33717
3.333
3.31965
3.29563
3.25942
3.20966
3.14537
3.06631
2.97349
2.86956
2.75833
2.6425
2.52296
2.40242
2.28317
2.16718
2.05647
1.95216
1.85523
1.76584
1.68413
1.60991
1.543
1.48273
1.42849
1.37944
1.33478
1.2936
1.25502
1.21813
1.18208
1.14614
1.10973
1.07243
1.03402
0.994461
0.953895
0.912592
0.87093
0.829342
0.78828
0.748182
0.709447
0.672417
0.637363
0.604473
0.573859
1.36485
1.38204
1.40038
1.41986
1.44055
1.46236
1.48533
1.50951
1.53487
1.56144
1.58923
1.61838
1.6488
1.68044
1.71336
1.74749
1.78277
1.81917
1.85665
1.89513
1.93454
1.97485
2.01596
2.05777
2.10021
2.14318
2.18661
2.23041
2.27447
2.3188
2.36333
2.408
2.45279
2.49764
2.54253
2.58742
2.63228
2.67709
2.7218
2.7664
2.81083
2.85505
2.89901
2.94263
2.98583
3.02849
3.07047
3.11159
3.15161
3.19024
3.22714
3.26185
3.29385
3.32249
3.34701
3.36649
3.37986
3.38589
3.38317
3.37014
3.34513
3.30651
3.25286
3.18334
3.09807
2.99878
2.88901
2.77321
2.65325
2.53087
2.40852
2.2884
2.17289
2.06335
1.96105
1.86632
1.77947
1.70028
1.62869
1.56416
1.50607
1.45356
1.40578
1.3618
1.32068
1.28149
1.24332
1.2054
1.16711
1.128
1.08781
1.04649
1.00416
0.961085
0.917636
0.874255
0.831402
0.789529
0.74905
0.710324
0.673633
0.639182
0.607094
1.3323
1.34669
1.36221
1.37885
1.39665
1.41558
1.43565
1.45693
1.4793
1.50285
1.52763
1.55356
1.58073
1.60914
1.63894
1.67003
1.70241
1.73609
1.77104
1.80721
1.84455
1.88304
1.9226
1.96318
2.00472
2.04716
2.09041
2.13436
2.17895
2.2241
2.2697
2.31568
2.36203
2.40868
2.45559
2.50275
2.55011
2.59765
2.64533
2.69313
2.74102
2.78896
2.83689
2.88478
2.93253
2.98005
3.02721
3.07386
3.11978
3.16471
3.20831
3.25017
3.28979
3.32655
3.3597
3.38835
3.41145
3.42776
3.43586
3.43413
3.42078
3.39399
3.352
3.29345
3.2177
3.12548
3.0194
2.90392
2.78366
2.66016
2.5353
2.41154
2.29154
2.17694
2.06931
1.9692
1.8771
1.79287
1.71641
1.64741
1.58527
1.5291
1.47803
1.43109
1.3873
1.34569
1.30531
1.26533
1.22509
1.1841
1.14209
1.09897
1.05484
1.00996
0.9647
0.919503
0.87484
0.831173
0.788932
0.748489
0.710144
0.674115
0.640535
1.30522
1.31698
1.32984
1.34378
1.35884
1.375
1.39227
1.41072
1.43028
1.45099
1.47293
1.49595
1.52016
1.5456
1.57222
1.6001
1.6293
1.6599
1.69185
1.72517
1.75985
1.79587
1.83319
1.87179
1.91161
1.95261
1.99473
2.03792
2.08214
2.12728
2.17325
2.21997
2.26737
2.3153
2.36378
2.41275
2.46216
2.51202
2.56227
2.61289
2.66386
2.71515
2.76672
2.81853
2.8705
2.92258
2.97463
3.02653
3.07809
3.12906
3.17915
3.22796
3.27502
3.31974
3.3614
3.39914
3.43192
3.45853
3.47753
3.48729
3.48594
3.47151
3.44198
3.39556
3.33099
3.24806
3.14829
3.03527
2.91452
2.79017
2.66345
2.53657
2.41247
2.29305
2.18019
2.0747
1.97726
1.88787
1.80646
1.73275
1.66634
1.60631
1.55176
1.5017
1.45509
1.41093
1.36822
1.32608
1.28382
1.2409
1.19701
1.15204
1.10607
1.05936
1.01225
0.965214
0.918715
0.873229
0.829202
0.787019
0.746996
0.709365
0.674272
1.28309
1.29242
1.3028
1.31421
1.32669
1.34023
1.35485
1.37059
1.38743
1.40539
1.42454
1.44479
1.46624
1.4889
1.51265
1.53763
1.56384
1.59129
1.62005
1.65023
1.68186
1.71491
1.74944
1.78543
1.82286
1.8617
1.90193
1.94351
1.98641
2.03056
2.07594
2.12249
2.1701
2.21868
2.26817
2.31845
2.36943
2.42114
2.4735
2.52652
2.58015
2.63439
2.68919
2.74454
2.80038
2.85665
2.91325
2.97008
3.02696
3.08369
3.13998
3.19548
3.24975
3.30222
3.35221
3.3989
3.44126
3.47812
3.50804
3.52939
3.54026
3.53857
3.5221
3.48874
3.43669
3.36496
3.27399
3.16621
3.04648
2.92095
2.79287
2.66345
2.5357
2.41176
2.29384
2.183
2.08017
1.9855
1.89904
1.82044
1.74953
1.68543
1.62721
1.57384
1.52426
1.47741
1.43225
1.38785
1.34347
1.29855
1.25271
1.20584
1.158
1.1094
1.06042
1.01151
0.963143
0.915809
0.869966
0.826015
0.784286
0.745026
0.708392
1.26538
1.27249
1.28058
1.28965
1.29973
1.31083
1.32296
1.33615
1.3504
1.36573
1.3822
1.39976
1.41848
1.43841
1.45946
1.48173
1.5052
1.52981
1.5557
1.58285
1.61133
1.64118
1.67261
1.70556
1.74006
1.77616
1.81384
1.8531
1.89393
1.9363
1.98019
2.02556
2.07237
2.12061
2.17018
2.22099
2.27296
2.32601
2.37996
2.43491
2.49073
2.54747
2.60508
2.66354
2.72283
2.78289
2.84365
2.90503
2.96687
3.029
3.09117
3.15305
3.21424
3.2742
3.33229
3.38772
3.4395
3.48648
3.52726
3.56022
3.58343
3.59473
3.59179
3.5722
3.53374
3.47477
3.39479
3.29502
3.17907
3.0531
2.92339
2.7921
2.66123
2.53314
2.41038
2.29428
2.18603
2.08598
1.99434
1.91077
1.83512
1.76672
1.70461
1.64773
1.59501
1.54532
1.49757
1.45081
1.40422
1.3572
1.30936
1.26053
1.21075
1.16023
1.10934
1.05851
1.00824
0.959023
0.91133
0.865577
0.82211
0.781188
0.742982
1.25157
1.25667
1.26267
1.2696
1.27748
1.28631
1.29612
1.30694
1.31877
1.33163
1.34556
1.36056
1.37666
1.39392
1.41231
1.43189
1.45269
1.47465
1.49787
1.52228
1.54793
1.57492
1.60323
1.63298
1.66429
1.69728
1.73191
1.76829
1.80643
1.84633
1.88799
1.93142
1.97657
2.02347
2.07206
2.12234
2.17427
2.22775
2.28269
2.33903
2.39651
2.45527
2.51519
2.57631
2.63858
2.70198
2.76647
2.83196
2.89835
2.96549
3.03315
3.10104
3.1688
3.23593
3.30183
3.36573
3.4267
3.48362
3.53513
3.57962
3.61519
3.63964
3.65053
3.64525
3.62123
3.57629
3.50912
3.41985
3.3107
3.18687
3.0555
2.92241
2.78898
2.65718
2.52988
2.40866
2.29503
2.18953
2.09258
2.00393
1.92336
1.85041
1.78419
1.72361
1.66755
1.61485
1.56438
1.51512
1.46622
1.41702
1.36709
1.31623
1.26446
1.21197
1.15912
1.10633
1.05412
1.00298
0.9534
0.905807
0.860563
0.817942
0.778128
1.24117
1.24445
1.24857
1.25356
1.25942
1.26619
1.27387
1.28249
1.29208
1.30263
1.3142
1.32679
1.34042
1.35515
1.37097
1.38794
1.40609
1.42543
1.446
1.46779
1.49081
1.51515
1.54069
1.56759
1.59591
1.62571
1.65709
1.69028
1.72528
1.76216
1.80098
1.84177
1.88454
1.92933
1.97612
2.02491
2.07571
2.12848
2.1833
2.24
2.2985
2.35873
2.42041
2.48368
2.54842
2.61468
2.6824
2.75154
2.82201
2.89369
2.96639
3.03987
3.11379
3.18771
3.26105
3.33309
3.40296
3.46956
3.53159
3.58747
3.63533
3.67296
3.69787
3.70728
3.69837
3.66847
3.61559
3.53894
3.43945
3.32092
3.18991
3.05452
2.91889
2.78388
2.6524
2.52627
2.40733
2.29636
2.19398
2.10008
2.01452
1.93678
1.86621
1.80169
1.7421
1.68622
1.63287
1.58098
1.52965
1.47816
1.42606
1.37311
1.31928
1.26476
1.20989
1.1551
1.1009
1.04779
0.99628
0.946805
0.899741
0.85538
0.813917
1.23373
1.23538
1.23781
1.24104
1.24508
1.24997
1.25571
1.26233
1.26985
1.27828
1.28766
1.29801
1.30934
1.3217
1.3351
1.34959
1.3652
1.38196
1.39994
1.41912
1.43954
1.46126
1.4842
1.50848
1.53409
1.56107
1.58955
1.61956
1.65126
1.68485
1.72043
1.75806
1.79785
1.83984
1.88408
1.93062
1.97947
2.03064
2.08417
2.14003
2.19835
2.25894
2.32171
2.38656
2.45322
2.52179
2.59222
2.66447
2.7385
2.81422
2.89147
2.97004
3.04966
3.1299
3.21026
3.29005
3.36845
3.44441
3.51667
3.58371
3.64369
3.69444
3.73342
3.75777
3.76443
3.75036
3.71301
3.65072
3.56336
3.45331
3.32582
3.1891
3.05079
2.91318
2.77794
2.64718
2.52308
2.40665
2.29876
2.19948
2.10877
2.02609
1.95091
1.88223
1.81888
1.75963
1.70323
1.64856
1.59467
1.5408
1.48643
1.43129
1.37534
1.31873
1.26178
1.20494
1.14869
1.09357
1.04008
0.988672
0.939742
0.893593
0.850435
1.22881
1.22901
1.22993
1.23159
1.234
1.23719
1.24118
1.24598
1.25161
1.25811
1.26548
1.27376
1.28297
1.29314
1.30429
1.31646
1.32968
1.344
1.35946
1.3761
1.39395
1.41308
1.43346
1.45514
1.47814
1.50251
1.52834
1.55554
1.58432
1.61477
1.64701
1.68125
1.71768
1.75638
1.79748
1.84106
1.88721
1.93597
1.98742
2.04156