/*--------------------------------*- C++ -*----------------------------------*\
| =========                 |                                                 |
| \\      /  F ield         | OpenFOAM: The Open Source CFD Toolbox           |
|  \\    /   O peration     | Version:  2506                                  |
|   \\  /    A nd           | Website:  www.openfoam.com                      |
|    \\/     M anipulation  |                                                 |
\*---------------------------------------------------------------------------*/
FoamFile
{
    version     2.0;
    format      ascii;
    arch        "LSB;label=32;scalar=64";
    class       volVectorField;
    location    "0";
    object      U;
}
// * * * * * * * * * * * * * * * * * * * * * * * * * * * * * * * * * * * * * //

dimensions      [0 1 -1 0 0 0 0];

internalField   nonuniform List<vector> 
18004
(
(0.937335 0.130012 5.22834e-22)
(0.931627 0.122326 -5.25584e-22)
(0.925525 0.114726 0)
(0.919032 0.107218 0)
(0.91215 0.0998081 -8.95617e-18)
(0.904883 0.0925037 0)
(0.897234 0.085311 -2.79313e-22)
(0.889203 0.0782362 -4.60927e-18)
(0.880794 0.0712854 2.84662e-22)
(0.872012 0.064465 4.68353e-18)
(0.86281 0.0577774 4.71691e-18)
(0.853175 0.0512286 -2.89758e-22)
(0.843124 0.0448263 2.91436e-22)
(0.832678 0.0385777 -7.62934e-24)
(0.82185 0.0324894 0)
(0.810644 0.026567 2.42058e-18)
(0.79906 0.0208162 1.48444e-22)
(0.787098 0.0152423 1.21805e-18)
(0.774758 0.00985088 -1.13861e-22)
(0.762039 0.00464715 3.05731e-19)
(0.748937 -0.00036337 0)
(0.735449 -0.00517536 -6.12401e-19)
(0.721573 -0.00978332 6.1235e-19)
(0.707303 -0.0141817 1.22373e-18)
(0.692634 -0.0183648 7.48818e-23)
(0.677558 -0.0223268 -2.43991e-18)
(0.662069 -0.0260619 0)
(0.646159 -0.0295637 -1.47338e-22)
(0.629816 -0.032826 2.41739e-18)
(0.613045 -0.0358427 -2.40698e-18)
(0.595766 -0.0386025 -4.78894e-18)
(0.577946 -0.0410959 -4.76172e-18)
(0.559594 -0.0433161 -2.9068e-22)
(0.54073 -0.0452569 4.69839e-18)
(0.521362 -0.0469113 4.66218e-18)
(0.50148 -0.0482714 -4.40688e-24)
(0.481076 -0.0493288 -2.8176e-22)
(0.460152 -0.0500763 4.53409e-18)
(0.438656 -0.0505001 4.48404e-18)
(0.416545 -0.0505868 -4.43297e-18)
(0.393818 -0.0503279 4.37811e-18)
(0.370516 -0.0497193 4.3187e-18)
(0.346663 -0.0487551 -1.2178e-21)
(0.322249 -0.0474257 5.17577e-22)
(0.297302 -0.0457267 8.25321e-18)
(0.271879 -0.0436587 -5.01186e-22)
(0.246041 -0.0412237 -9.577e-22)
(0.219884 -0.0384311 -2.37223e-23)
(0.193518 -0.0352943 7.66849e-18)
(0.167094 -0.0318364 7.51305e-18)
(0.140778 -0.0280863 0)
(0.11478 -0.0240849 -6.11624e-22)
(0.0893215 -0.0198797 7.03719e-18)
(0.0646575 -0.0155302 6.8773e-18)
(0.0410475 -0.0111021 1.34428e-17)
(0.0187563 -0.00666856 6.56855e-18)
(-0.00196117 -0.00230699 1.28354e-17)
(-0.0208882 0.00190772 6.2724e-18)
(-0.0378459 0.00590345 6.13295e-18)
(-0.0527014 0.0096147 6.00152e-18)
(-0.0654173 0.0129951 0)
(-0.0760261 0.0160135 -5.7646e-18)
(-0.0846155 0.0186538 -1.13224e-17)
(-0.0913321 0.0209168 -5.56579e-18)
(-0.0963707 0.0228194 -5.4814e-18)
(-0.0999519 0.0243897 1.347e-23)
(-0.102315 0.0256666 1.68224e-22)
(-0.10367 0.0266862 5.27508e-18)
(-0.10419 0.0274804 1.04427e-17)
(-0.104073 0.0280919 -6.36738e-22)
(-0.103472 0.0285542 5.13446e-18)
(-0.102511 0.0288969 1.0199e-17)
(-0.10131 0.0291496 0)
(-0.0999507 0.0293339 5.04483e-18)
(-0.0985022 0.0294691 6.10114e-22)
(-0.0970095 0.0295684 -5.00816e-18)
(-0.0955089 0.0296431 -4.99498e-18)
(-0.0940279 0.0297026 -9.96847e-18)
(-0.0925885 0.0297548 4.97761e-18)
(-0.0912041 0.0298053 0)
(-0.0898791 0.0298567 8.52592e-22)
(-0.088601 0.0299062 -6.08978e-22)
(-0.0873607 0.029952 0)
(-0.0861434 0.0299898 0)
(-0.0849371 0.0300165 -8.21357e-22)
(-0.0837347 0.0300297 4.99122e-18)
(-0.0825165 0.0300229 0)
(-0.0812777 0.0299943 5.00979e-18)
(-0.0800057 0.029939 1.00452e-17)
(-0.0786935 0.0298542 -5.03566e-18)
(-0.0773435 0.0297403 0)
(-0.0759581 0.0295979 5.06667e-18)
(-0.0745447 0.0294292 0)
(-0.0731137 0.0292379 1.5312e-22)
(-0.0716737 0.0290272 1.02461e-17)
(-0.0702316 0.0287996 -1.02878e-17)
(-0.0687934 0.0285578 5.16581e-18)
(-0.0673644 0.0283039 5.18993e-18)
(-0.0659489 0.0280399 6.35755e-22)
(-0.0645511 0.027768 -1.04797e-17)
(-0.0631731 0.0274895 1.05316e-17)
(-0.0618158 0.0272052 5.29345e-18)
(-0.0604788 0.0269154 -5.32136e-18)
(2.8023 0.390841 0)
(2.78785 0.367967 0)
(2.77221 0.345325 1.2938e-17)
(2.75538 0.322936 -1.30922e-17)
(2.73738 0.300822 -1.32372e-17)
(2.71821 0.279002 1.33762e-17)
(2.69788 0.257496 0)
(2.67639 0.236322 0)
(2.65376 0.215501 6.87196e-18)
(2.62999 0.195051 -6.92564e-18)
(2.60494 0.174981 -4.25922e-22)
(2.57858 0.155308 4.28431e-22)
(2.55097 0.136055 -4.31014e-22)
(2.52216 0.117245 6.10852e-22)
(2.4922 0.098897 -3.42829e-25)
(2.46109 0.0810296 -3.58346e-18)
(2.42883 0.0636595 0)
(2.39543 0.0468035 -1.80361e-18)
(2.36088 0.0304783 -1.80837e-18)
(2.32518 0.0147002 -4.52948e-19)
(2.28833 -0.000513984 0)
(2.2503 -0.0151479 9.07889e-19)
(2.2111 -0.0291847 -1.81622e-18)
(2.17071 -0.0426073 -1.81563e-18)
(2.12912 -0.0553984 0)
(2.08629 -0.0675403 3.6228e-18)
(2.04222 -0.0790148 -3.61507e-18)
(1.99687 -0.089803 -4.40044e-22)
(1.95022 -0.0998856 3.59383e-18)
(1.90227 -0.109242 3.58002e-18)
(1.85276 -0.117838 1.42533e-17)
(1.80162 -0.125647 -7.09031e-18)
(1.74889 -0.132648 0)
(1.69461 -0.138824 -7.00379e-18)
(1.6388 -0.144151 0)
(1.58144 -0.148605 0)
(1.52248 -0.15216 -6.84102e-18)
(1.46192 -0.154793 1.65412e-21)
(1.39958 -0.156458 -6.70881e-18)
(1.33535 -0.157117 1.32701e-17)
(1.26921 -0.156746 8.08394e-22)
(1.20128 -0.155328 6.47695e-18)
(1.13158 -0.152843 1.27814e-17)
(1.06006 -0.149258 0)
(0.986799 -0.144559 -1.24124e-17)
(0.911915 -0.138742 1.22173e-17)
(0.835559 -0.13181 1.20116e-17)
(0.757975 -0.123786 -1.55905e-21)
(0.679447 -0.114703 -1.15852e-17)
(0.60038 -0.104625 -2.27298e-17)
(0.521226 -0.093632 -6.89731e-22)
(0.442565 -0.081839 1.09122e-17)
(0.365026 -0.0693824 -1.0685e-17)
(0.289345 -0.0564339 -1.04578e-17)
(0.216284 -0.0431858 2.68871e-21)
(0.146644 -0.0298547 -2.00265e-17)
(0.0812142 -0.0166709 -1.95968e-17)
(0.0206963 -0.00386048 -9.58859e-18)
(-0.0342987 0.00835518 -1.87593e-17)
(-0.0832919 0.0197752 -1.83411e-17)
(-0.126063 0.0302514 1.08161e-21)
(-0.162599 0.0396795 8.79826e-18)
(-0.193059 0.0479998 8.6341e-18)
(-0.217795 0.0552044 -8.48794e-18)
(-0.237317 0.0613341 8.35394e-18)
(-0.252232 0.0664657 -2.01146e-21)
(-0.263217 0.0707068 1.62603e-17)
(-0.270884 0.0741602 8.03678e-18)
(-0.275765 0.0769214 -7.9522e-18)
(-0.278454 0.0791156 -9.69925e-22)
(-0.279423 0.0808413 -7.8194e-18)
(-0.279063 0.0821879 -7.76592e-18)
(-0.277744 0.083243 0)
(-0.275729 0.0840717 -7.68427e-18)
(-0.273245 0.084732 9.39235e-22)
(-0.270445 0.0852645 7.62617e-18)
(-0.267457 0.0857049 7.60694e-18)
(-0.264379 0.0860824 7.58988e-18)
(-0.261293 0.086422 -7.58098e-18)
(-0.258251 0.086741 1.84905e-21)
(-0.255278 0.0870484 -7.57118e-18)
(-0.252356 0.0873375 -7.5694e-18)
(-0.249469 0.0876047 0)
(-0.246588 0.0878394 -7.57977e-18)
(-0.243687 0.0880339 1.51765e-17)
(-0.240753 0.0881818 0)
(-0.237738 0.0882657 0)
(-0.23463 0.0882803 -7.62916e-18)
(-0.231398 0.0882123 -7.64751e-18)
(-0.228026 0.0880543 7.66862e-18)
(-0.224519 0.0878073 -9.3698e-22)
(-0.220886 0.0874729 7.71701e-18)
(-0.217148 0.087058 7.74288e-18)
(-0.213331 0.0865727 -7.77118e-18)
(-0.209462 0.0860256 -1.56042e-17)
(-0.205558 0.0854242 7.83534e-18)
(-0.201637 0.0847755 -9.61914e-22)
(-0.197716 0.0840862 1.36636e-21)
(-0.193808 0.0833623 -9.70694e-22)
(-0.189927 0.0826103 7.98076e-18)
(-0.186082 0.081834 -8.02005e-18)
(-0.182277 0.0810366 -8.06392e-18)
(-0.178515 0.0802196 9.88566e-22)
(4.67007 0.651856 0)
(4.64946 0.614191 1.2475e-17)
(4.62685 0.576863 -1.263e-17)
(4.60227 0.539908 2.55555e-17)
(4.57572 0.503361 1.29185e-17)
(4.54722 0.467256 -1.30519e-17)
(4.51678 0.431627 1.3178e-17)
(4.48441 0.396505 0)
(4.45012 0.361923 -6.70442e-18)
(4.41392 0.327916 0)
(4.37556 0.294498 0)
(4.33501 0.261697 0)
(4.29238 0.229552 6.89272e-18)
(4.24776 0.1981 -5.08292e-22)
(4.20119 0.167377 3.48233e-18)
(4.1527 0.137411 0)
(4.10229 0.108233 0)
(4.04996 0.0798704 0)
(3.9957 0.0523523 7.43609e-23)
(3.93951 0.0257066 -5.41422e-23)
(3.88138 -3.8383e-05 0)
(3.82129 -0.0248544 0)
(3.75923 -0.0487128 8.88287e-19)
(3.69516 -0.0715844 -1.08802e-22)
(3.62906 -0.0934398 2.15862e-22)
(3.5609 -0.114249 -3.54776e-18)
(3.49065 -0.13398 7.08375e-18)
(3.41825 -0.152602 0)
(3.34367 -0.170081 -3.52458e-18)
(3.26687 -0.18638 -4.26354e-22)
(3.18743 -0.201438 -6.99798e-18)
(3.10526 -0.215214 6.96707e-18)
(3.02043 -0.227679 -6.93174e-18)
(2.933 -0.238798 6.89207e-18)
(2.84298 -0.248531 0)
(2.75033 -0.256835 0)
(2.65497 -0.263666 1.34959e-17)
(2.55687 -0.268978 0)
(2.4557 -0.272691 0)
(2.35128 -0.274742 -1.31304e-17)
(2.24361 -0.27509 6.49608e-18)
(2.13281 -0.273706 -6.4213e-18)
(2.0189 -0.270541 -6.34433e-18)
(1.90176 -0.265535 -1.72845e-23)
(1.78147 -0.258658 -1.50789e-21)
(1.65821 -0.249896 -1.2174e-17)
(1.53215 -0.239239 -7.22413e-22)
(1.40366 -0.226713 -7.79509e-22)
(1.27314 -0.21236 -6.98311e-22)
(1.1412 -0.196269 1.13966e-17)
(1.00853 -0.178556 1.11917e-17)
(0.876039 -0.159395 -6.80065e-22)
(0.744723 -0.138997 -1.07713e-17)
(0.615772 -0.117631 -6.34898e-22)
(0.490438 -0.0956067 -1.03495e-17)
(0.370072 -0.0732766 1.01447e-17)
(0.256022 -0.0510206 -9.02083e-22)
(0.149542 -0.0292214 -3.51164e-23)
(0.0517551 -0.0082602 9.56295e-18)
(-0.0364222 0.0115145 1.87429e-17)
(-0.114469 0.0298317 0)
(-0.182202 0.0464886 -8.98836e-18)
(-0.239744 0.0613576 -8.81957e-18)
(-0.287557 0.0743989 8.66492e-18)
(-0.326388 0.0856564 0)
(-0.357176 0.0952374 8.4055e-18)
(-0.380992 0.103303 2.57082e-21)
(-0.398841 0.110011 -8.19995e-18)
(-0.41163 0.11552 9.82867e-22)
(-0.420353 0.120034 -8.04462e-18)
(-0.425816 0.123713 0)
(-0.428706 0.126709 0)
(-0.429654 0.129164 0)
(-0.429132 0.13119 -1.07684e-21)
(-0.42754 0.132885 0)
(-0.425166 0.134318 -7.77851e-18)
(-0.422246 0.135554 -7.76067e-18)
(-0.418972 0.136644 1.89081e-21)
(-0.415497 0.137632 -1.88808e-21)
(-0.41193 0.138551 9.46858e-22)
(-0.408331 0.139417 0)
(-0.404689 0.140224 7.72315e-18)
(-0.400999 0.14097 -1.88639e-21)
(-0.397231 0.141643 1.54653e-17)
(-0.393358 0.142232 -7.73986e-18)
(-0.389367 0.14273 7.75114e-18)
(-0.385191 0.143112 1.89632e-21)
(-0.380818 0.143371 -9.52498e-22)
(-0.376202 0.143485 0)
(-0.371322 0.143446 -7.82274e-18)
(-0.366188 0.143254 7.84658e-18)
(-0.360813 0.142912 -1.57435e-17)
(-0.355231 0.142431 1.47011e-21)
(-0.349485 0.141826 -3.2662e-24)
(-0.343611 0.141109 7.95937e-18)
(-0.337642 0.140293 -7.99427e-18)
(-0.331606 0.139387 9.78832e-22)
(-0.32553 0.138403 -1.61334e-17)
(-0.319439 0.137351 -9.88197e-22)
(-0.313358 0.136242 -8.14397e-18)
(-0.307304 0.135083 8.18741e-18)
(-0.301289 0.133879 -3.46704e-22)
(-0.29532 0.132636 -1.01086e-21)
(6.48529 0.905471 7.00338e-22)
(6.46077 0.853754 -2.33369e-17)
(6.43352 0.802448 -7.18031e-22)
(6.40357 0.751604 -2.3875e-17)
(6.37093 0.70127 0)
(6.33562 0.651492 -7.45018e-22)
(6.29765 0.602318 -2.45857e-17)
(6.25704 0.553792 0)
(6.21381 0.505957 6.24924e-18)
(6.16795 0.458865 7.6846e-22)
(6.11912 0.412534 -3.86712e-22)
(6.06731 0.367004 -3.89486e-22)
(6.01267 0.322326 -6.41943e-18)
(5.95532 0.278552 -3.22665e-18)
(5.89531 0.235729 -1.4913e-22)
(5.83265 0.193899 -1.99017e-22)
(5.76734 0.153103 0)
(5.6994 0.11338 1.64087e-18)
(5.6288 0.0747701 1.64573e-18)
(5.55554 0.0373126 2.53491e-23)
(5.4796 0.001047 5.04427e-23)
(5.40095 -0.0339873 -2.53347e-23)
(5.31957 -0.0677501 0)
(5.23542 -0.100201 1.65818e-18)
(5.14846 -0.131297 -1.65824e-18)
(5.05864 -0.160998 3.31515e-18)
(4.9659 -0.189258 -3.31185e-18)
(4.87019 -0.216033 -2.028e-22)
(4.77144 -0.241276 0)
(4.6696 -0.264931 0)
(4.56402 -0.286906 0)
(4.45466 -0.307158 0)
(4.34161 -0.325645 6.51556e-18)
(4.22495 -0.342313 0)
(4.10464 -0.357105 -6.45265e-18)
(3.9806 -0.369957 7.76939e-22)
(3.85274 -0.380806 -6.57084e-22)
(3.72097 -0.389578 0)
(3.58477 -0.396153 0)
(3.44392 -0.400448 -1.01037e-21)
(3.29842 -0.402407 1.06553e-21)
(3.1484 -0.401977 0)
(2.99377 -0.399073 6.05784e-18)
(2.83433 -0.393599 0)
(2.67016 -0.38551 -1.1848e-17)
(2.50142 -0.374764 -1.7489e-23)
(2.32828 -0.36133 1.15559e-17)
(2.15115 -0.345222 1.14e-17)
(1.9705 -0.326476 6.95428e-22)
(1.78708 -0.305188 -1.10789e-17)
(1.60174 -0.281493 -1.09108e-17)
(1.41567 -0.255604 -1.07415e-17)
(1.23016 -0.227786 1.05692e-17)
(1.04681 -0.198391 -1.03995e-17)
(0.867348 -0.167825 1.02289e-17)
(0.693664 -0.13657 0)
(0.527695 -0.105147 -8.25398e-22)
(0.371304 -0.0740991 -1.20614e-21)
(0.226221 -0.043975 0)
(0.0939049 -0.0152844 -1.8863e-17)
(-0.0246851 0.0115561 0)
(-0.129045 0.0362184 9.10064e-18)
(-0.219124 0.0584784 8.93632e-18)
(-0.295372 0.0782387 -1.06082e-21)
(-0.358674 0.0955218 -8.65368e-18)
(-0.410219 0.110444 1.61125e-21)
(-0.451423 0.123202 -8.42626e-18)
(-0.483657 0.133997 1.00846e-21)
(-0.508212 0.143047 -1.01578e-21)
(-0.526487 0.15063 8.178e-18)
(-0.539638 0.156966 -8.11584e-18)
(-0.54867 0.162267 -9.90949e-22)
(-0.554492 0.166732 0)
(-0.557809 0.170519 1.59539e-17)
(-0.559216 0.173765 9.75332e-22)
(-0.559159 0.176576 -7.91859e-18)
(-0.55801 0.179044 -9.68898e-22)
(-0.556068 0.181248 -7.88453e-18)
(-0.55358 0.183254 9.65097e-22)
(-0.550724 0.18511 7.86608e-18)
(-0.547612 0.186843 9.56396e-22)
(-0.544262 0.188451 7.86364e-18)
(-0.540692 0.189939 -9.63545e-22)
(-0.536887 0.191294 -7.87321e-18)
(-0.532831 0.192511 0)
(-0.52852 0.193581 -1.57901e-17)
(-0.523882 0.194474 0)
(-0.518906 0.195182 -9.65326e-22)
(-0.51354 0.19568 7.94869e-18)
(-0.50776 0.195956 7.96774e-18)
(-0.501581 0.196013 -1.59855e-17)
(-0.495023 0.195853 1.60377e-17)
(-0.48813 0.195492 -8.04691e-18)
(-0.480956 0.194946 -9.84605e-22)
(-0.473551 0.194232 3.12707e-24)
(-0.465956 0.193364 8.14771e-18)
(-0.458211 0.192356 -9.97646e-22)
(-0.450356 0.191223 8.22285e-18)
(-0.442426 0.189978 8.26125e-18)
(-0.43446 0.188638 8.30443e-18)
(-0.426485 0.187213 -8.34638e-18)
(-0.418523 0.185714 8.3907e-18)
(-0.410591 0.184147 8.4356e-18)
(8.13987 1.13668 -1.02635e-17)
(8.11264 1.0723 1.26035e-21)
(8.0821 1.00839 -1.04858e-17)
(8.04828 0.945018 6.93703e-22)
(8.0112 0.882247 -6.53906e-22)
(7.97089 0.82013 6.56359e-22)
(7.92737 0.758724 2.17346e-17)
(7.88064 0.698084 -6.67132e-22)
(7.83073 0.638263 0)
(7.77765 0.579325 -5.54787e-18)
(7.72096 0.521294 5.5823e-18)
(7.66075 0.464215 -3.42749e-22)
(7.59719 0.408151 9.98468e-26)
(7.53037 0.353161 -2.83646e-18)
(7.46034 0.2993 -2.84982e-18)
(7.3871 0.246622 0)
(7.31066 0.195174 0)
(7.23101 0.145005 -1.44049e-18)
(7.14814 0.0961626 -7.22281e-19)
(7.06203 0.0486955 -3.61893e-19)
(6.97266 0.00265213 0)
(6.87998 -0.0419195 0)
(6.78396 -0.0849702 7.27091e-19)
(6.68456 -0.126449 -1.45518e-18)
(6.58171 -0.166306 1.45546e-18)
(6.47535 -0.204487 -2.91023e-18)
(6.36541 -0.240938 1.76663e-22)
(6.25182 -0.275604 -1.7815e-22)
(6.13448 -0.308426 0)
(6.01329 -0.339325 -3.51327e-22)
(5.88746 -0.368189 3.54578e-22)
(5.757 -0.394979 5.76042e-18)
(5.62204 -0.419639 -5.74253e-18)
(5.48258 -0.442101 0)
(5.33856 -0.462284 5.69912e-18)
(5.18985 -0.480108 5.67336e-18)
(5.0363 -0.495487 -5.645e-18)
(4.87778 -0.508323 -5.61398e-18)
(4.71356 -0.518452 -6.74987e-22)
(4.54341 -0.52578 5.54535e-18)
(4.36733 -0.530233 -5.50686e-18)
(4.18537 -0.53173 0)
(3.99731 -0.530141 -5.42538e-18)
(3.80283 -0.525332 6.64108e-22)
(3.602 -0.517235 -7.60102e-22)
(3.39486 -0.505771 -1.05712e-17)
(3.18151 -0.490873 3.465e-22)
(2.96234 -0.472531 1.03683e-17)
(2.73778 -0.450748 6.34836e-22)
(2.50862 -0.425609 1.01547e-17)
(2.27576 -0.397238 0)
(2.04053 -0.36586 9.93763e-18)
(1.80442 -0.33176 0)
(1.56935 -0.295341 9.72192e-18)
(1.3374 -0.257078 -1.92348e-17)
(1.11097 -0.217554 0)
(0.892559 -0.177412 -1.85596e-21)
(0.684663 -0.137343 1.12116e-21)
(0.489706 -0.0980649 -1.14298e-21)
(0.309796 -0.0602561 -1.8975e-21)
(0.146504 -0.0245001 0)
(0.0008417 0.00871831 -1.08044e-21)
(-0.126774 0.0390456 2.16064e-21)
(-0.236596 0.0662915 -1.07783e-21)
(-0.329488 0.0904227 1.72295e-17)
(-0.406763 0.111535 -8.51584e-18)
(-0.470083 0.129833 8.42857e-18)
(-0.521125 0.145543 1.01027e-21)
(-0.561551 0.158937 -1.01924e-21)
(-0.593149 0.170352 0)
(-0.617432 0.180066 -2.71479e-22)
(-0.635736 0.18835 -8.12037e-18)
(-0.649265 0.195456 -9.80461e-22)
(-0.658977 0.201587 -1.6096e-17)
(-0.665682 0.206924 -9.74128e-22)
(-0.670013 0.211608 8.00111e-18)
(-0.672494 0.215766 0)
(-0.67356 0.219502 1.59429e-17)
(-0.673563 0.222909 -9.68184e-22)
(-0.672775 0.226053 -7.9577e-18)
(-0.671372 0.228975 0)
(-0.669422 0.23168 -7.96038e-18)
(-0.666985 0.234185 0)
(-0.664076 0.236481 0)
(-0.660707 0.23857 0)
(-0.656891 0.240443 7.99847e-18)
(-0.652563 0.242073 -8.01576e-18)
(-0.647718 0.24345 -8.03603e-18)
(-0.642307 0.244547 -8.05635e-18)
(-0.636305 0.24535 -1.61652e-17)
(-0.629734 0.245865 8.10888e-18)
(-0.62262 0.246093 -8.13935e-18)
(-0.615013 0.246051 9.99223e-22)
(-0.606978 0.245759 -8.20466e-18)
(-0.598573 0.245233 8.24169e-18)
(-0.58985 0.244491 -2.98495e-24)
(-0.580858 0.243547 -1.01683e-21)
(-0.571647 0.242421 0)
(-0.562269 0.241131 -1.68044e-17)
(-0.552773 0.239696 8.4456e-18)
(-0.543203 0.238133 1.03775e-21)
(-0.533592 0.236456 -8.53895e-18)
(-0.52397 0.234677 3.3432e-22)
(9.5647 1.33582 1.78879e-17)
(9.53474 1.2605 9.029e-18)
(9.50102 1.18572 9.10902e-18)
(9.46357 1.11156 3.57537e-22)
(9.42242 1.03809 1.12947e-21)
(9.37762 0.965361 -5.6747e-22)
(9.32917 0.893447 -1.55049e-21)
(9.2771 0.822407 1.15187e-21)
(9.22143 0.752301 -5.78421e-22)
(9.16216 0.683202 9.53742e-18)
(9.09922 0.615163 -4.79242e-18)
(9.03261 0.548224 0)
(8.96235 0.482437 2.94967e-22)
(8.88846 0.417863 2.42611e-18)
(8.81098 0.354563 0)
(8.72992 0.292595 2.44161e-18)
(8.64527 0.232013 2.44787e-18)
(8.55702 0.172871 1.22657e-18)
(8.46516 0.115224 0)
(8.36966 0.0591236 1.08999e-23)
(8.27049 0.00462594 1.884e-23)
(8.1676 -0.0482152 -7.4976e-23)
(8.06095 -0.0993444 -1.23229e-18)
(7.95049 -0.148705 -7.54624e-23)
(7.83614 -0.196238 0)
(7.71782 -0.241885 1.49481e-22)
(7.59547 -0.285584 -2.45634e-18)
(7.46897 -0.327271 0)
(7.33822 -0.36688 0)
(7.20311 -0.40431 -2.43914e-18)
(7.06268 -0.439439 0)
(6.91717 -0.472244 -4.85289e-18)
(6.76661 -0.502656 5.27361e-22)
(6.61095 -0.530588 0)
(6.45005 -0.555945 -4.80105e-18)
(6.28376 -0.578631 -4.7798e-18)
(6.11189 -0.598547 -4.75872e-18)
(5.93423 -0.615563 4.7337e-18)
(5.74992 -0.629488 -5.69375e-22)
(5.55875 -0.640226 1.14262e-21)
(5.36069 -0.647693 -1.13577e-21)
(5.15569 -0.651773 5.70124e-22)
(4.94339 -0.652291 4.59266e-18)
(4.72334 -0.649086 0)
(4.49558 -0.642069 9.05768e-18)
(4.26 -0.631116 1.79843e-17)
(4.01659 -0.616124 -8.92565e-18)
(3.76565 -0.597047 -1.77216e-17)
(3.50745 -0.573847 5.44081e-22)
(3.24275 -0.546578 0)
(2.97234 -0.515328 -8.67059e-18)
(2.69756 -0.480302 8.61311e-18)
(2.41992 -0.441769 -8.5597e-18)
(2.14145 -0.400141 -8.50777e-18)
(1.86441 -0.355912 -1.39781e-21)
(1.59151 -0.309716 3.10629e-23)
(1.32566 -0.26227 8.39375e-18)
(1.06989 -0.214373 0)
(0.827248 -0.166878 -1.00501e-21)
(0.600524 -0.120611 1.6677e-17)
(0.391991 -0.0763224 0)
(0.203339 -0.0346685 8.32768e-18)
(0.0355599 0.00384145 0)
(-0.111169 0.0388862 0)
(-0.237454 0.070335 -1.64527e-17)
(-0.344517 0.0982196 9.88403e-22)
(-0.434079 0.122712 -8.13347e-18)
(-0.507993 0.144031 8.09447e-18)
(-0.568204 0.162476 8.06066e-18)
(-0.61683 0.178432 -8.03049e-18)
(-0.655702 0.192211 1.60064e-17)
(-0.686481 0.20414 7.98133e-18)
(-0.710655 0.214514 0)
(-0.729442 0.22358 1.59025e-17)
(-0.743881 0.231558 0)
(-0.754804 0.238627 0)
(-0.762912 0.244946 7.93105e-18)
(-0.768788 0.250651 -7.92785e-18)
(-0.772913 0.255861 7.93116e-18)
(-0.775663 0.260662 -7.56008e-24)
(-0.777298 0.265111 -9.72956e-22)
(-0.777958 0.269228 0)
(-0.777762 0.273041 0)
(-0.776776 0.276553 9.70447e-22)
(-0.775051 0.279776 7.98869e-18)
(-0.772632 0.282706 5.39297e-24)
(-0.769473 0.285319 8.03237e-18)
(-0.765585 0.287607 -6.31411e-22)
(-0.760924 0.289541 0)
(-0.755471 0.29111 8.11681e-18)
(-0.749255 0.292317 -8.15139e-18)
(-0.742304 0.293166 -9.97498e-22)
(-0.734675 0.293673 8.22629e-18)
(-0.726438 0.293857 8.26823e-18)
(-0.717656 0.293735 1.49172e-21)
(-0.708386 0.293322 -1.02157e-21)
(-0.698687 0.292637 1.02433e-21)
(-0.688621 0.291699 -2.06318e-21)
(-0.678252 0.290533 8.49923e-18)
(-0.667647 0.289162 -8.54818e-18)
(-0.656864 0.287607 1.04877e-21)
(-0.645955 0.285889 -1.41255e-21)
(-0.634964 0.284025 -8.70441e-18)
(10.7791 1.50562 -7.84743e-18)
(10.7465 1.42096 -4.84593e-22)
(10.7097 1.33691 7.96949e-18)
(10.6689 1.25355 8.0259e-18)
(10.624 1.17096 0)
(10.5751 1.08919 0)
(10.5222 1.00834 -1.63288e-17)
(10.4653 0.928453 4.10063e-18)
(10.4045 0.849607 1.00537e-21)
(10.3398 0.771876 -8.26838e-18)
(10.2714 0.695338 -2.53271e-22)
(10.1991 0.620028 -9.21404e-26)
(10.123 0.545993 4.17221e-18)
(10.043 0.473294 2.0908e-18)
(9.95919 0.401996 1.27743e-22)
(9.87146 0.332159 -2.09832e-18)
(9.77986 0.263841 -4.20078e-18)
(9.68436 0.197102 -1.05075e-18)
(9.58496 0.131999 5.25484e-19)
(9.48161 0.0685903 2.62772e-19)
(9.37429 0.00693448 0)
(9.26294 -0.0529098 0)
(9.14752 -0.110883 1.04802e-18)
(9.02796 -0.166922 0)
(8.90418 -0.220965 -1.04381e-18)
(8.7761 -0.272947 0)
(8.64363 -0.322801 2.14657e-22)
(8.50665 -0.370457 2.06867e-18)
(8.36506 -0.415843 0)
(8.21868 -0.458848 2.05204e-18)
(8.06731 -0.499388 -4.98889e-22)
(7.91073 -0.537419 4.0708e-18)
(7.74879 -0.572859 8.10465e-18)
(7.58133 -0.605609 -4.03232e-18)
(7.4082 -0.635565 8.02358e-18)
(7.22921 -0.662618 3.98895e-18)
(7.04411 -0.686658 3.96482e-18)
(6.85268 -0.707532 4.76603e-22)
(6.65391 -0.725029 -8.62692e-24)
(6.44774 -0.739074 -4.79219e-22)
(6.23408 -0.749564 0)
(6.01277 -0.756354 -4.63476e-22)
(5.78329 -0.759232 -7.61921e-18)
(5.54512 -0.758018 0)
(5.29832 -0.752618 0)
(5.0426 -0.742864 3.24816e-22)
(4.77784 -0.728623 7.40053e-18)
(4.50424 -0.709822 1.4692e-17)
(4.22192 -0.686381 7.29684e-18)
(3.93154 -0.658325 0)
(3.63374 -0.625697 7.20262e-18)
(3.32978 -0.588677 -7.16286e-18)
(3.02104 -0.547498 7.12828e-18)
(2.70956 -0.502554 7.369e-22)
(2.39758 -0.454323 7.08279e-18)
(2.08794 -0.40345 7.0761e-18)
(1.7837 -0.350675 7.07413e-18)
(1.48823 -0.296847 8.78071e-22)
(1.20499 -0.242897 0)
(0.937261 -0.189747 -7.14012e-18)
(0.687934 -0.138269 7.18377e-18)
(0.459344 -0.0892616 -7.23315e-18)
(0.253106 -0.043376 7.29173e-18)
(0.069954 -0.00106879 0)
(-0.0902742 0.0374098 -1.34415e-21)
(-0.228505 0.0719969 7.40155e-18)
(-0.346297 0.102792 0)
(-0.445481 0.129969 -7.43228e-18)
(-0.528124 0.153822 -7.45148e-18)
(-0.59653 0.174742 7.4706e-18)
(-0.652755 0.193058 -7.49141e-18)
(-0.698712 0.209126 0)
(-0.736123 0.223268 0)
(-0.766437 0.235765 -7.55413e-18)
(-0.7909 0.246864 9.29875e-22)
(-0.810542 0.256778 7.59656e-18)
(-0.826239 0.265696 -7.61689e-18)
(-0.838728 0.273783 -7.63819e-18)
(-0.848624 0.281181 -7.66064e-18)
(-0.856418 0.287999 0)
(-0.862469 0.294309 7.7035e-18)
(-0.867002 0.300149 -9.39917e-22)
(-0.870214 0.305564 9.49159e-22)
(-0.872238 0.310572 7.7742e-18)
(-0.873185 0.3152 -1.56044e-17)
(-0.873139 0.319452 -7.83369e-18)
(-0.872091 0.323309 0)
(-0.870073 0.326769 7.90564e-18)
(-0.867056 0.329804 7.94566e-18)
(-0.863031 0.332405 0)
(-0.85803 0.334574 -5.61024e-22)
(-0.852085 0.336314 -8.0935e-18)
(-0.845251 0.337637 -8.14689e-18)
(-0.837597 0.338562 -8.20364e-18)
(-0.829187 0.339099 -8.26317e-18)
(-0.820077 0.339263 8.32392e-18)
(-0.810333 0.33907 -8.38401e-18)
(-0.800025 0.338543 -2.66439e-24)
(-0.78923 0.337708 8.50741e-18)
(-0.778034 0.336593 8.57032e-18)
(-0.766512 0.335227 1.05262e-21)
(-0.754736 0.333634 8.69238e-18)
(-0.742772 0.331841 8.75646e-18)
(11.8243 1.65186 -8.51338e-22)
(11.7896 1.55922 4.27031e-22)
(11.7504 1.46724 -7.06994e-18)
(11.7068 1.37602 0)
(11.6589 1.28562 -4.37341e-22)
(11.6066 1.19612 -1.97257e-24)
(11.5501 1.10761 2.12316e-21)
(11.4894 1.02016 -1.06491e-21)
(11.4244 0.933824 4.43635e-22)
(11.3553 0.848697 3.63997e-18)
(11.282 0.764853 2.22542e-22)
(11.2048 0.682341 2.23111e-22)
(11.1236 0.601213 -3.6615e-18)
(11.0382 0.521531 -1.83205e-18)
(10.9487 0.443361 -2.23966e-22)
(10.8551 0.366766 -1.8339e-18)
(10.7574 0.291808 1.83394e-18)
(10.6556 0.21855 -9.16318e-19)
(10.5496 0.147052 -4.57848e-19)
(10.4395 0.0773748 -2.28491e-19)
(10.3251 0.00958215 0)
(10.2065 -0.0562645 4.55282e-19)
(10.0835 -0.120101 -6.6273e-23)
(9.95609 -0.181862 0)
(9.82422 -0.241482 1.52772e-23)
(9.68779 -0.29889 9.32382e-25)
(9.54668 -0.354015 1.79027e-18)
(9.40079 -0.406784 -1.78187e-18)
(9.24999 -0.457119 2.17443e-22)
(9.09406 -0.504901 -2.13883e-22)
(8.93335 -0.550074 -3.50428e-18)
(8.76738 -0.592584 -3.48372e-18)
(8.59582 -0.632334 -1.229e-22)
(8.41845 -0.669218 6.87597e-18)
(8.23508 -0.703122 -3.41328e-18)
(8.04547 -0.73393 -3.38695e-18)
(7.84937 -0.761522 3.35852e-18)
(7.64648 -0.78573 4.09894e-22)
(7.43645 -0.806406 0)
(7.21891 -0.823445 0)
(6.99352 -0.836715 -3.24699e-18)
(6.75997 -0.846042 -3.96883e-22)
(6.51764 -0.851187 3.18997e-18)
(6.26598 -0.851972 -3.81656e-22)
(6.00508 -0.848298 3.87148e-22)
(5.73448 -0.839952 -1.24311e-17)
(5.45397 -0.826787 2.2747e-22)
(5.16369 -0.808709 -1.22192e-17)
(4.8636 -0.785602 -6.05789e-18)
(4.55427 -0.757469 0)
(4.23618 -0.724317 0)
(3.9105 -0.686301 7.12918e-22)
(3.57847 -0.643616 -5.89272e-18)
(3.24206 -0.59664 1.17288e-17)
(2.90343 -0.545822 -7.24321e-22)
(2.56543 -0.491804 -5.8333e-18)
(2.23117 -0.435324 -5.82997e-18)
(1.90418 -0.377252 -5.84281e-18)
(1.58818 -0.31856 0)
(1.28677 -0.260222 0)
(1.00327 -0.203188 -1.18874e-17)
(0.740536 -0.148352 7.42362e-22)
(0.500682 -0.0964677 -6.07013e-18)
(0.284944 -0.0480947 0)
(0.0936103 -0.00358483 1.24715e-17)
(-0.0738883 0.03691 -6.30811e-18)
(-0.218869 0.0734151 7.6974e-22)
(-0.343011 0.106043 -7.91192e-22)
(-0.448369 0.135061 0)
(-0.537294 0.160843 7.92841e-22)
(-0.611947 0.183704 6.60517e-18)
(-0.674392 0.204011 1.62865e-21)
(-0.726499 0.222089 -8.2703e-22)
(-0.769881 0.238231 0)
(-0.805936 0.252702 -8.31861e-22)
(-0.835854 0.26573 1.69765e-21)
(-0.860657 0.277527 -8.45774e-22)
(-0.881216 0.288279 6.17835e-23)
(-0.898267 0.298145 -7.06084e-18)
(-0.912408 0.307251 0)
(-0.924097 0.315685 -7.15129e-18)
(-0.933651 0.3235 0)
(-0.941354 0.330763 0)
(-0.947419 0.337509 -7.28332e-18)
(-0.952024 0.343781 1.46592e-17)
(-0.955313 0.349595 1.47547e-17)
(-0.957321 0.354943 9.09473e-22)
(-0.958111 0.359829 0)
(-0.957676 0.36423 5.73278e-22)
(-0.956021 0.368139 0)
(-0.953183 0.371557 7.69178e-18)
(-0.949189 0.374482 1.55362e-17)
(-0.944087 0.376924 0)
(-0.937937 0.378892 7.93477e-18)
(-0.93079 0.38039 -9.80605e-22)
(-0.922698 0.381425 -8.10756e-18)
(-0.91372 0.38201 8.19439e-18)
(-0.903933 0.382165 0)
(-0.893424 0.381918 -1.67292e-17)
(-0.882291 0.381302 -8.44774e-18)
(-0.870631 0.380348 8.52969e-18)
(-0.858538 0.37909 -8.6084e-18)
(-0.846104 0.377563 -8.68923e-18)
(12.7307 1.77881 0)
(12.6946 1.67933 6.312e-18)
(12.6537 1.58055 6.34766e-18)
(12.6082 1.48257 -7.78634e-22)
(12.558 1.38546 -2.05015e-24)
(12.5033 1.28932 3.91676e-22)
(12.444 1.19422 6.45499e-18)
(12.3803 1.10024 -3.23666e-18)
(12.3121 1.00745 0)
(12.2395 0.915947 0)
(12.1625 0.825794 0)
(12.0813 0.737055 0)
(11.9958 0.649789 0)
(11.9061 0.56406 -1.62991e-18)
(11.812 0.479937 0)
(11.7137 0.397485 2.17764e-22)
(11.611 0.316769 1.62694e-18)
(11.504 0.237853 1.54162e-22)
(11.3927 0.160802 -4.93798e-23)
(11.277 0.0856795 8.66979e-23)
(11.1568 0.0125513 0)
(11.0322 -0.0585179 -4.02151e-19)
(10.903 -0.127461 -4.00841e-19)
(10.7692 -0.19421 -9.70918e-23)
(10.6308 -0.258694 7.95077e-19)
(10.4875 -0.320841 0)
(10.3394 -0.380577 0)
(10.1862 -0.437823 -1.56506e-18)
(10.0279 -0.492498 -1.88875e-22)
(9.86428 -0.544485 1.89682e-22)
(9.69548 -0.593718 4.09998e-22)
(9.52125 -0.640136 -3.69537e-22)
(9.34126 -0.683645 -3.02265e-18)
(9.15524 -0.724132 -5.99684e-18)
(8.96295 -0.761477 -2.97261e-18)
(8.76413 -0.795558 0)
(8.55849 -0.826245 -5.83302e-18)
(8.34569 -0.85336 0)
(8.12588 -0.876802 0)
(7.89849 -0.896448 0)
(7.66296 -0.912138 2.7956e-18)
(7.41889 -0.92368 2.76302e-18)
(7.1659 -0.930862 7.20849e-24)
(6.9036 -0.933526 -2.70152e-18)
(6.63169 -0.931511 -5.34569e-18)
(6.34947 -0.92457 5.28811e-18)
(6.05671 -0.912558 -5.37504e-22)
(5.7535 -0.895359 1.03557e-17)
(5.43961 -0.87282 5.12534e-18)
(5.11559 -0.84494 -5.07395e-18)
(4.78172 -0.811682 -5.02733e-18)
(4.43913 -0.77319 0)
(4.08886 -0.729622 4.94131e-18)
(3.73282 -0.681339 -9.81172e-18)
(3.37305 -0.628764 4.87665e-18)
(3.01239 -0.572531 0)
(2.65393 -0.513368 -5.82196e-22)
(2.3013 -0.45216 4.83551e-18)
(1.95837 -0.389901 0)
(1.629 -0.327598 0)
(1.31686 -0.266262 4.88074e-18)
(1.02519 -0.206858 -4.91965e-18)
(0.756552 -0.150213 6.14069e-22)
(0.5126 -0.0969647 5.02735e-18)
(0.294015 -0.0475427 -5.09627e-18)
(0.100558 -0.00216937 0)
(-0.0688508 0.0391206 6.34798e-22)
(-0.215753 0.0763941 -1.1594e-23)
(-0.342153 0.109894 -1.31403e-21)
(-0.4504 0.139973 6.71183e-22)
(-0.542703 0.166929 -1.10646e-17)
(-0.621223 0.191127 5.61469e-18)
(-0.687919 0.212886 -6.99901e-22)
(-0.744512 0.232502 0)
(-0.792502 0.250239 0)
(-0.833192 0.266335 -5.94197e-18)
(-0.867705 0.281012 0)
(-0.897014 0.294465 -6.77599e-22)
(-0.921944 0.306862 6.16644e-18)
(-0.94318 0.318338 7.58234e-22)
(-0.96126 0.328992 -7.71988e-22)
(-0.976585 0.338891 0)
(-0.989523 0.348119 -7.81865e-22)
(-1.00037 0.356728 7.94547e-22)
(-1.00937 0.364782 -6.55313e-18)
(-1.01674 0.372308 -2.47124e-22)
(-1.02256 0.379312 4.26703e-24)
(-1.02694 0.38581 8.29043e-22)
(-1.02991 0.391781 -3.18436e-22)
(-1.03148 0.397224 6.95543e-18)
(-1.03169 0.402141 0)
(-1.03057 0.406525 -1.43282e-17)
(-1.02815 0.410376 8.86912e-22)
(-1.02447 0.413692 7.39645e-18)
(-1.01955 0.416466 7.5181e-18)
(-1.01343 0.418691 1.86575e-21)
(-1.00615 0.420371 -9.49165e-22)
(-0.99778 0.421521 0)
(-0.988405 0.422165 8.00412e-18)
(-0.978135 0.422335 -8.11982e-18)
(-0.967081 0.422067 -8.23199e-18)
(-0.95536 0.421402 8.34053e-18)
(-0.94309 0.420381 8.44233e-18)
(13.5235 1.88994 -6.94373e-22)
(13.4868 1.78459 -5.74603e-18)
(13.4451 1.67996 -1.15491e-17)
(13.3984 1.57615 -5.80004e-18)
(13.3468 1.47326 5.82187e-18)
(13.2904 1.37137 0)
(13.2293 1.27056 -5.85673e-18)
(13.1634 1.17092 3.57664e-22)
(13.0929 1.07253 0)
(13.0177 0.975477 0)
(12.938 0.879833 0)
(12.8537 0.785665 0)
(12.765 0.69304 2.94548e-18)
(12.6719 0.602026 1.47227e-18)
(12.5742 0.512693 0)
(12.4721 0.425111 1.46881e-18)
(12.3655 0.339346 -1.46617e-18)
(12.2544 0.255465 1.60088e-22)