/*--------------------------------*- C++ -*----------------------------------*\
| =========                 |                                                 |
| \\      /  F ield         | OpenFOAM: The Open Source CFD Toolbox           |
|  \\    /   O peration     | Version:  2506                                  |
|   \\  /    A nd           | Website:  www.openfoam.com                      |
|    \\/     M anipulation  |                                                 |
\*---------------------------------------------------------------------------*/
FoamFile
{
    version     2.0;
    format      ascii;
    arch        "LSB;label=32;scalar=64";
    class       volScalarField;
    location    "6000";
    object      k;
}
// * * * * * * * * * * * * * * * * * * * * * * * * * * * * * * * * * * * * * //

dimensions      [0 2 -2 0 0 0 0];

internalField   nonuniform List<scalar> 
72100
(
0.00481759
0.00477341
0.00471347
0.00465006
0.00457391
0.00449111
0.00440181
0.00430709
0.00420741
0.00410309
0.00399434
0.00388132
0.00376411
0.00364277
0.00351734
0.00338789
0.00325445
0.00311705
0.00297581
0.00283062
0.00268146
0.00252873
0.00237278
0.00221395
0.00205234
0.0018884
0.00172257
0.0015559
0.00138876
0.00122315
0.00105908
0.000900537
0.000745776
0.000603086
0.000465628
0.000350565
0.000239057
0.000164437
8.62944e-05
5.74937e-05
0.00426661
0.00424544
0.00423022
0.00420591
0.00417472
0.00413879
0.00409847
0.00405425
0.00400631
0.00395474
0.00389957
0.00384081
0.00377845
0.00371246
0.00364284
0.00356955
0.00349257
0.00341188
0.00332737
0.00323847
0.00314507
0.00304755
0.00294607
0.00284058
0.00273051
0.00261597
0.00249717
0.00237405
0.00224672
0.0021156
0.00198087
0.0018433
0.00170319
0.00156188
0.00141956
0.00127828
0.00113848
0.00100201
0.000872202
0.000746181
0.0257191
0.0256599
0.0256131
0.0255045
0.0253598
0.025188
0.0249914
0.0247725
0.024532
0.0242702
0.0239871
0.0236826
0.0233565
0.0230085
0.0226386
0.0222464
0.0218318
0.0213943
0.0209333
0.0204447
0.0199276
0.0193844
0.0188159
0.0182212
0.0175963
0.0169413
0.0162573
0.0155428
0.0147981
0.0140242
0.0132223
0.0123939
0.0115429
0.0106705
0.00978498
0.00888335
0.00798872
0.00707925
0.00622202
0.00533974
0.0911095
0.0910448
0.0909031
0.0905475
0.0900714
0.0895036
0.0888515
0.0881227
0.0873197
0.0864429
0.0854924
0.0844674
0.0833668
0.0821898
0.0809353
0.0796022
0.0781894
0.0766954
0.0751173
0.0734401
0.0716604
0.0697862
0.0678196
0.0657573
0.0635835
0.061299
0.0589061
0.0563988
0.0537778
0.0510446
0.0482037
0.045258
0.0422225
0.039097
0.0359155
0.0326592
0.0294219
0.0261081
0.0229862
0.0197406
0.214647
0.21472
0.214455
0.213746
0.21279
0.211644
0.210318
0.208829
0.20718
0.205371
0.2034
0.201264
0.19896
0.196485
0.193834
0.191004
0.18799
0.184788
0.181389
0.177755
0.173878
0.169773
0.165442
0.160874
0.156028
0.150902
0.145498
0.139794
0.133789
0.127479
0.120868
0.113955
0.106771
0.0993029
0.0916372
0.0837014
0.0757534
0.0675039
0.0596998
0.0514334
0.375652
0.375827
0.375468
0.374512
0.373212
0.371642
0.36981
0.36774
0.365431
0.36288
0.360083
0.357032
0.353719
0.350137
0.346276
0.342129
0.337685
0.332934
0.327858
0.322388
0.316506
0.310237
0.303574
0.296492
0.288908
0.280817
0.272209
0.263032
0.253268
0.242891
0.231894
0.220242
0.207976
0.195025
0.18154
0.167314
0.152858
0.137491
0.122784
0.10669
0.535959
0.535993
0.535564
0.534553
0.533176
0.531501
0.529527
0.527279
0.524753
0.521939
0.51883
0.515414
0.511677
0.507609
0.503195
0.498423
0.493278
0.487743
0.481791
0.475327
0.468326
0.460816
0.452781
0.444179
0.434888
0.424896
0.414178
0.402641
0.390249
0.37694
0.362676
0.347373
0.331055
0.313554
0.295055
0.275139
0.254558
0.232066
0.210196
0.185274
0.673893
0.673661
0.673173
0.672227
0.670953
0.669397
0.667548
0.665426
0.663018
0.660311
0.657294
0.65395
0.650263
0.646218
0.641799
0.636989
0.63177
0.626122
0.620012
0.613325
0.606037
0.598179
0.589723
0.580614
0.570702
0.559976
0.548394
0.535834
0.522241
0.507523
0.491614
0.474381
0.455822
0.435675
0.414121
0.390531
0.365809
0.338145
0.31085
0.278562
0.78579
0.785329
0.784816
0.783974
0.782864
0.781515
0.779924
0.778081
0.775967
0.773563
0.770856
0.767824
0.764447
0.760709
0.756591
0.752074
0.747138
0.741759
0.735904
0.729456
0.722392
0.714735
0.706452
0.69748
0.687652
0.676964
0.66536
0.652695
0.638909
0.623887
0.607542
0.589708
0.57036
0.549164
0.526283
0.500933
0.474078
0.443488
0.412939
0.375746
0.875644
0.875056
0.87453
0.873807
0.872893
0.871794
0.870495
0.868972
0.867198
0.865154
0.86282
0.860171
0.857185
0.853844
0.850128
0.846015
0.841483
0.836508
0.831056
0.82506
0.818485
0.811315
0.803511
0.79501
0.785654
0.775436
0.764284
0.752047
0.738659
0.723994
0.707949
0.690339
0.671119
0.649916
0.626859
0.601077
0.57352
0.541715
0.509612
0.469706
0.947506
0.946837
0.946301
0.945686
0.944965
0.944123
0.94313
0.94195
0.94055
0.938909
0.937004
0.934803
0.932284
0.929428
0.926211
0.922612
0.918607
0.914171
0.909271
0.903841
0.897843
0.891253
0.884034
0.87612
0.867424
0.85789
0.847434
0.835914
0.823253
0.809317
0.793994
0.777089
0.758543
0.73796
0.715436
0.690063
0.662725
0.63086
0.598357
0.557364
1.00516
1.00444
1.00389
1.00336
1.00281
1.0022
1.0015
1.00065
0.999624
0.998392
0.996931
0.995202
0.993182
0.990851
0.988183
0.985157
0.981746
0.977926
0.973664
0.968896
0.963577
0.95768
0.951167
0.943978
0.936023
0.927246
0.917577
0.906919
0.895154
0.88215
0.867784
0.851861
0.834304
0.814716
0.793153
0.768712
0.742177
0.71101
0.678877
0.637948
1.05179
1.05104
1.05049
1.05002
1.0496
1.04918
1.04873
1.04818
1.04749
1.04665
1.04562
1.04435
1.04282
1.04102
1.03891
1.03647
1.03368
1.0305
1.02692
1.02286
1.01827
1.01313
1.0074
1.00102
0.993896
0.985974
0.977186
0.967434
0.956637
0.944665
0.931383
0.916594
0.900207
0.881833
0.861489
0.838304
0.812943
0.78297
0.751725
0.711672
1.08993
1.08918
1.08861
1.08818
1.08785
1.08758
1.08732
1.08702
1.08663
1.08613
1.08549
1.08464
1.08359
1.08229
1.08072
1.07886
1.07667
1.07414
1.07123
1.06788
1.06405
1.05969
1.05477
1.04923
1.04299
1.03598
1.02814
1.01937
1.00959
0.99868
0.986542
0.972964
0.957844
0.940806
0.921833
0.900101
0.87615
0.847697
0.817694
0.779089
1.12154
1.1208
1.12022
1.1198
1.11952
1.11934
1.11923
1.11912
1.11897
1.11876
1.11845
1.11799
1.11735
1.11652
1.11545
1.11413
1.11253
1.11061
1.10836
1.10571
1.10261
1.09902
1.0949
1.09021
1.08486
1.07879
1.07193
1.06418
1.05546
1.04567
1.03468
1.02234
1.00853
0.992895
0.975379
0.955214
0.932822
0.906097
0.877585
0.840825
1.1481
1.14738
1.1468
1.14638
1.14611
1.14598
1.14596
1.14598
1.14602
1.14603
1.14599
1.14585
1.14558
1.14515
1.14454
1.14371
1.14265
1.14131
1.13967
1.13769
1.13529
1.13245
1.12911
1.12524
1.12077
1.11562
1.10973
1.10302
1.09539
1.08673
1.07694
1.06585
1.05336
1.03914
1.02313
1.00459
0.983853
0.958972
0.932137
0.897477
1.17073
1.17004
1.16946
1.16901
1.16874
1.16862
1.16863
1.16874
1.1689
1.16909
1.16926
1.16937
1.1694
1.16933
1.1691
1.16872
1.16814
1.16733
1.16626
1.16489
1.16315
1.16101
1.15842
1.15534
1.15171
1.14745
1.14252
1.13682
1.13026
1.12274
1.11416
1.10435
1.0932
1.08042
1.06593
1.04903
1.03003
1.00704
0.98205
0.949599
1.19016
1.18951
1.18893
1.18848
1.18819
1.18807
1.1881
1.18826
1.1885
1.18879
1.18912
1.18943
1.18971
1.18992
1.19003
1.19002
1.18986
1.18952
1.18897
1.18816
1.18703
1.18555
1.18365
1.18132
1.17848
1.17507
1.17105
1.16632
1.16082
1.15442
1.14703
1.13848
1.12869
1.11736
1.10442
1.0892
1.07197
1.05095
1.02794
0.997734
1.20697
1.20635
1.20578
1.20532
1.20502
1.2049
1.20494
1.20512
1.20541
1.2058
1.20624
1.2067
1.20717
1.2076
1.20798
1.20829
1.20849
1.20856
1.20847
1.20817
1.20759
1.2067
1.20545
1.20381
1.20171
1.19911
1.19595
1.19216
1.18765
1.18233
1.1761
1.16881
1.16035
1.15046
1.13906
1.12554
1.11011
1.0911
1.07015
1.04235
1.22159
1.22102
1.22046
1.22
1.21969
1.21955
1.21959
1.21978
1.22011
1.22056
1.22109
1.22167
1.22229
1.22291
1.22351
1.22408
1.22458
1.225
1.2253
1.22544
1.22536
1.22501
1.22435
1.22334
1.22194
1.22008
1.21773
1.21481
1.21125
1.20696
1.20185
1.19576
1.18861
1.18013
1.17026
1.15842
1.14479
1.12782
1.10896
1.08368
1.23439
1.23386
1.23332
1.23286
1.23253
1.23238
1.23241
1.2326
1.23295
1.23343
1.23403
1.2347
1.23544
1.23622
1.23701
1.23779
1.23854
1.23926
1.2399
1.24042
1.24078
1.24091
1.24078
1.24035
1.23957
1.23841
1.23681
1.2347
1.23204
1.22872
1.22466
1.21973
1.21383
1.20672
1.19834
1.18815
1.17629
1.16136
1.1446
1.12189
1.24565
1.24515
1.24463
1.24417
1.24384
1.24367
1.24368
1.24386
1.24422
1.24472
1.24536
1.2461
1.24693
1.24783
1.24877
1.24974
1.25071
1.25167
1.25259
1.25345
1.25419
1.25474
1.25508
1.25518
1.25497
1.25444
1.25353
1.25218
1.25034
1.24793
1.24487
1.24103
1.23633
1.23054
1.22359
1.215
1.20488
1.19194
1.17727
1.15713
1.25558
1.25512
1.25462
1.25417
1.25383
1.25364
1.25363
1.2538
1.25415
1.25466
1.25532
1.25611
1.25701
1.258
1.25907
1.26018
1.26134
1.26251
1.26368
1.26482
1.26588
1.2668
1.26756
1.26812
1.26843
1.26847
1.26819
1.26753
1.26646
1.2649
1.26277
1.25996
1.25639
1.25185
1.24628
1.23923
1.23079
1.21978
1.20716
1.18956
1.26438
1.26395
1.26348
1.26304
1.26269
1.26249
1.26246
1.26261
1.26294
1.26344
1.26411
1.26492
1.26587
1.26693
1.26809
1.26933
1.27064
1.27199
1.27336
1.27475
1.27608
1.27733
1.27845
1.27942
1.28019
1.28074
1.28103
1.28101
1.28064
1.27986
1.27859
1.27674
1.27423
1.27088
1.26662
1.26103
1.25421
1.24508
1.23445
1.21932
1.27219
1.27179
1.27135
1.27092
1.27058
1.27036
1.27031
1.27043
1.27074
1.27123
1.27189
1.27271
1.27369
1.2748
1.27603
1.27736
1.27879
1.28029
1.28184
1.28343
1.28501
1.28653
1.28797
1.28929
1.29047
1.29148
1.29228
1.29283
1.2931
1.29303
1.29256
1.2916
1.29008
1.28784
1.28481
1.28062
1.27534
1.268
1.2593
1.24655
1.27913
1.27877
1.27836
1.27795
1.2776
1.27737
1.2773
1.2774
1.27768
1.27815
1.27879
1.27962
1.2806
1.28174
1.28302
1.28442
1.28594
1.28756
1.28927
1.29103
1.29281
1.29457
1.29628
1.29791
1.29945
1.30085
1.30211
1.30318
1.30403
1.3046
1.30486
1.30472
1.30413
1.30292
1.30104
1.29817
1.29435
1.28872
1.28187
1.2714
1.28532
1.28499
1.28461
1.28422
1.28388
1.28364
1.28355
1.28362
1.28387
1.28431
1.28494
1.28574
1.28673
1.28788
1.28918
1.29064
1.29223
1.29394
1.29577
1.29768
1.29964
1.30159
1.30353
1.30543
1.30727
1.30903
1.31069
1.31221
1.31358
1.31474
1.31567
1.31628
1.31653
1.31628
1.31548
1.31384
1.31141
1.30738
1.30231
1.29401
1.29084
1.29054
1.29019
1.28981
1.28948
1.28924
1.28913
1.28918
1.28941
1.28981
1.29041
1.2912
1.29216
1.29331
1.29463
1.29611
1.29775
1.29954
1.30146
1.30349
1.3056
1.30772
1.30985
1.31198
1.31408
1.31615
1.31816
1.32008
1.32191
1.3236
1.32512
1.32642
1.32744
1.32807
1.32828
1.32779
1.32664
1.32414
1.32075
1.3145
1.29575
1.29549
1.29517
1.29481
1.29449
1.29425
1.29413
1.29416
1.29435
1.29473
1.29529
1.29605
1.297
1.29813
1.29945
1.30094
1.30261
1.30445
1.30644
1.30857
1.3108
1.31306
1.31536
1.31767
1.32
1.32233
1.32464
1.32692
1.32915
1.33131
1.33336
1.33527
1.337
1.33844
1.33957
1.34014
1.3402
1.33911
1.33731
1.33301
1.30013
1.2999
1.29961
1.29928
1.29897
1.29873
1.2986
1.29861
1.29878
1.29912
1.29965
1.30038
1.30129
1.30241
1.30371
1.30521
1.30689
1.30875
1.31079
1.313
1.31532
1.3177
1.32013
1.32261
1.32512
1.32767
1.33024
1.33282
1.33541
1.33798
1.34051
1.34297
1.34533
1.34751
1.34948
1.35103
1.35221
1.35244
1.35213
1.34965
1.30403
1.30383
1.30356
1.30326
1.30297
1.30273
1.3026
1.30259
1.30273
1.30305
1.30354
1.30423
1.30511
1.3062
1.30748
1.30896
1.31064
1.31252
1.3146
1.31685
1.31925
1.32173
1.32427
1.32687
1.32954
1.33227
1.33506
1.3379
1.34079
1.34372
1.34668
1.34963
1.35255
1.35539
1.35813
1.36057
1.36278
1.36424
1.36531
1.36454
1.30749
1.30732
1.30708
1.3068
1.30653
1.3063
1.30616
1.30614
1.30626
1.30655
1.30701
1.30766
1.30851
1.30956
1.31081
1.31227
1.31394
1.31582
1.31791
1.3202
1.32265
1.3252
1.32783
1.33053
1.33333
1.33621
1.33918
1.34224
1.3454
1.34864
1.35196
1.35534
1.35877
1.3622
1.36563
1.36889
1.37204
1.37462
1.37698
1.37779
1.31054
1.3104
1.31019
1.30994
1.30969
1.30947
1.30933
1.3093
1.30941
1.30966
1.31009
1.31071
1.31152
1.31253
1.31375
1.31518
1.31683
1.3187
1.32078
1.32309
1.32559
1.32819
1.33088
1.33367
1.33656
1.33956
1.34268
1.34593
1.3493
1.35281
1.35645
1.3602
1.36408
1.36804
1.37208
1.37608
1.38009
1.3837
1.38724
1.38951
1.31323
1.31312
1.31294
1.31271
1.31248
1.31228
1.31214
1.31211
1.3122
1.31243
1.31283
1.31341
1.31418
1.31515
1.31634
1.31773
1.31935
1.3212
1.32327
1.32558
1.3281
1.33074
1.33348
1.33632
1.33929
1.34239
1.34563
1.34903
1.35259
1.35632
1.36022
1.36431
1.36857
1.37299
1.37759
1.38224
1.38702
1.39156
1.39618
1.3998
1.31559
1.3155
1.31534
1.31514
1.31493
1.31475
1.31462
1.31458
1.31466
1.31487
1.31525
1.31579
1.31653
1.31746
1.3186
1.31996
1.32155
1.32336
1.32542
1.32771
1.33024
1.3329
1.33567
1.33856
1.34158
1.34475
1.34809
1.3516
1.35531
1.35923
1.36336
1.36772
1.37233
1.37715
1.38223
1.38746
1.39293
1.39832
1.40392
1.40876
1.31763
1.31756
1.31743
1.31726
1.31708
1.31691
1.31679
1.31675
1.31682
1.31702
1.31737
1.31788
1.31858
1.31948
1.32058
1.3219
1.32344
1.32522
1.32725
1.32952
1.33204
1.33472
1.3375
1.34041
1.34347
1.34669
1.3501
1.35371
1.35754
1.36161
1.36593
1.37053
1.37542
1.38059
1.38609
1.39184
1.39792
1.40406
1.41055
1.4165
1.31937
1.31933
1.31923
1.31909
1.31893
1.31878
1.31867
1.31864
1.3187
1.31889
1.31922
1.3197
1.32037
1.32122
1.32229
1.32356
1.32507
1.32681
1.3288
1.33104
1.33354
1.33621
1.339
1.34192
1.345
1.34826
1.35172
1.3554
1.35932
1.36351
1.36799
1.37278
1.37791
1.38338
1.38925
1.39544
1.40206
1.40887
1.41615
1.4231
1.32085
1.32083
1.32076
1.32064
1.3205
1.32038
1.32029
1.32026
1.32032
1.3205
1.32081
1.32127
1.32191
1.32273
1.32375
1.32498
1.32644
1.32814
1.33009
1.3323
1.33477
1.33743
1.3402
1.34312
1.34621
1.34949
1.35298
1.35671
1.36071
1.36499
1.3696
1.37455
1.37988
1.3856
1.39177
1.39835
1.40544
1.41283
1.42081
1.42865
1.32207
1.32207
1.32202
1.32193
1.32182
1.32172
1.32165
1.32163
1.3217
1.32186
1.32216
1.3226
1.32321
1.324
1.32498
1.32617
1.32759
1.32925
1.33115
1.33332
1.33576
1.33839
1.34114
1.34405
1.34713
1.35042
1.35393
1.35769
1.36174
1.36609
1.3708
1.37587
1.38137
1.3873
1.39373
1.40064
1.40813
1.41603
1.42462
1.43325
1.32305
1.32307
1.32305
1.32298
1.3229
1.32282
1.32277
1.32276
1.32283
1.323
1.32329
1.32371
1.32429
1.32505
1.326
1.32715
1.32853
1.33014
1.332
1.33413
1.33652
1.33911
1.34184
1.34473
1.34779
1.35107
1.35459
1.35837
1.36245
1.36686
1.37163
1.37681
1.38243
1.38853
1.39518
1.40236
1.4102
1.41853
1.42766
1.43698
1.3238
1.32384
1.32384
1.32381
1.32375
1.32369
1.32366
1.32367
1.32375
1.32392
1.32419
1.32461
1.32517
1.3259
1.32681
1.32793
1.32927
1.33083
1.33265
1.33473
1.33708
1.33963
1.34232
1.34517
1.34822
1.35148
1.35499
1.35878
1.36288
1.36732
1.37214
1.37739
1.38312
1.38936
1.39618
1.40359
1.41171
1.42041
1.42999
1.43991
1.32433
1.32439
1.32442
1.32441
1.32438
1.32435
1.32433
1.32436
1.32445
1.32462
1.3249
1.3253
1.32584
1.32655
1.32744
1.32852
1.32982
1.33134
1.33311
1.33515
1.33744
1.33994
1.34259
1.34541
1.34843
1.35167
1.35517
1.35895
1.36305
1.36751
1.37237
1.37767
1.38347
1.38981
1.39677
1.40437
1.41272
1.42173
1.4317
1.44212
1.32465
1.32474
1.32479
1.3248
1.3248
1.32479
1.3248
1.32484
1.32495
1.32512
1.3254
1.3258
1.32633
1.32702
1.32788
1.32893
1.33019
1.33168
1.3334
1.33539
1.33763
1.34008
1.34268
1.34546
1.34844
1.35165
1.35513
1.3589
1.36299
1.36746
1.37234
1.37767
1.38353
1.38995
1.39701
1.40475
1.41329
1.42256
1.43283
1.44369
1.32478
1.32488
1.32495
1.32499
1.32501
1.32503
1.32506
1.32513
1.32525
1.32543
1.32572
1.32611
1.32663
1.3273
1.32814
1.32917
1.33039
1.33184
1.33353
1.33546
1.33765
1.34004
1.34259
1.34533
1.34827
1.35145
1.3549
1.35864
1.36273
1.36719
1.37207
1.37743
1.38332
1.38979
1.39693
1.40478
1.41347
1.42293
1.43347
1.44468
1.32471
1.32483
1.32493
1.32499
1.32504
1.32508
1.32514
1.32522
1.32536
1.32556
1.32584
1.32624
1.32675
1.32741
1.32824
1.32924
1.33043
1.33185
1.33349
1.33538
1.33751
1.33984
1.34234
1.34503
1.34793
1.35108
1.35449
1.35821
1.36228
1.36672
1.3716
1.37696
1.38287
1.38938
1.39657
1.4045
1.4133
1.42292
1.43365
1.44515
1.32445
1.32459
1.32471
1.3248
1.32487
1.32494
1.32502
1.32513
1.32528
1.3255
1.32579
1.32619
1.3267
1.32736
1.32816
1.32914
1.33032
1.3317
1.3333
1.33514
1.33722
1.33949
1.34193
1.34458
1.34744
1.35054
1.35392
1.35761
1.36165
1.36608
1.37095
1.3763
1.38221
1.38874
1.39597
1.40394
1.41282
1.42255
1.43344
1.44516
1.32402
1.32418
1.32431
1.32443
1.32452
1.32462
1.32472
1.32485
1.32502
1.32526
1.32556
1.32597
1.32648
1.32713
1.32793
1.32889
1.33004
1.33139
1.33296
1.33476
1.33678
1.33899
1.34138
1.34398
1.34679
1.34986
1.35321
1.35686
1.36087
1.36528
1.37012
1.37547
1.38137
1.3879
1.39514
1.40315
1.41207
1.42189
1.43288
1.44477
1.3234
1.32358
1.32374
1.32387
1.324
1.32412
1.32425
1.3244
1.32459
1.32484
1.32516
1.32558
1.3261
1.32674
1.32753
1.32849
1.32962
1.33094
1.33247
1.33423
1.3362
1.33835
1.34069
1.34324
1.34601
1.34904
1.35235
1.35597
1.35995
1.36433
1.36915
1.37447
1.38036
1.38688
1.39412
1.40214
1.41109
1.42095
1.43201
1.44402
1.32261
1.32281
1.32299
1.32315
1.3233
1.32344
1.32359
1.32377
1.32399
1.32425
1.32459
1.32502
1.32555
1.32619
1.32698
1.32792
1.32904
1.33034
1.33184
1.33355
1.33547
1.33757
1.33987
1.34237
1.3451
1.34809
1.35136
1.35495
1.3589
1.36324
1.36804
1.37333
1.3792
1.3857
1.39293
1.40094
1.40989
1.41978
1.43087
1.44296
1.32166
1.32187
1.32207
1.32225
1.32242
1.32259
1.32277
1.32297
1.32321
1.3235
1.32385
1.32429
1.32483
1.32549
1.32627
1.32721
1.32831
1.32959
1.33107
1.33274
1.33461
1.33666
1.33891
1.34137
1.34406
1.34701
1.35025
1.35381
1.35772
1.36203
1.3668
1.37206
1.3779
1.38438
1.39159
1.39958
1.40852
1.4184
1.4295
1.44163
1.32053
1.32077
1.32099
1.32119
1.32138
1.32157
1.32178
1.322
1.32226
1.32257
1.32295
1.3234
1.32395
1.32462
1.32541
1.32634
1.32743
1.3287
1.33015
1.33178
1.33361
1.33562
1.33782
1.34024
1.3429
1.34582
1.34902
1.35254
1.35642
1.36071
1.36544
1.37068
1.37649
1.38293
1.39011
1.39808
1.40699
1.41685
1.42793
1.44006
1.31924
1.31949
1.31973
1.31996
1.32017
1.32039
1.32062
1.32086
1.32115
1.32148
1.32188
1.32235
1.32292
1.32359
1.32438
1.32532
1.3264
1.32765
1.32908
1.33069
1.33247
1.33444
1.33661
1.339
1.34162
1.3445
1.34767
1.35117
1.35502
1.35927
1.36397
1.36918
1.37495
1.38137
1.38851
1.39644
1.40531
1.41514
1.42618
1.43829
1.31779
1.31806
1.31832
1.31856
1.3188
1.31904
1.31929
1.31956
1.31987
1.32023
1.32064
1.32114
1.32172
1.3224
1.32321
1.32414
1.32522
1.32646
1.32787
1.32945
1.3312
1.33313
1.33527
1.33763
1.34022
1.34308
1.34622
1.34968
1.35351
1.35773
1.3624
1.36758
1.37332
1.37969
1.3868
1.39469
1.40351
1.41329
1.42428
1.43635
1.31617
1.31646
1.31673
1.317
1.31726
1.31752
1.31779
1.31809
1.31842
1.3188
1.31924
1.31976
1.32036
1.32106
1.32187
1.32281
1.32389
1.32512
1.32651
1.32806
1.32979
1.3317
1.33381
1.33614
1.33871
1.34154
1.34466
1.3481
1.35189
1.35609
1.36073
1.36588
1.37159
1.37793
1.38499
1.39283
1.4016
1.41132
1.42225
1.43425
1.31439
1.31469
1.31499
1.31527
1.31555
1.31584
1.31613
1.31646
1.31681
1.31722
1.31768
1.31821
1.31883
1.31955
1.32038
1.32132
1.32241
1.32363
1.325
1.32654
1.32824
1.33013
1.33222
1.33453
1.33708
1.33989
1.34299
1.3464
1.35018
1.35435
1.35897
1.36408
1.36976
1.37606
1.38308
1.39088
1.39959
1.40925
1.42009
1.43202
1.31245
1.31277
1.31308
1.31338
1.31368
1.31399
1.31431
1.31465
1.31504
1.31546
1.31595
1.31651
1.31715
1.31788
1.31872
1.31968
1.32076
1.32198
1.32335
1.32487
1.32656
1.32844
1.33051
1.3328
1.33534
1.33813
1.34121
1.34461
1.34837
1.35252
1.35711
1.3622
1.36785
1.37412
1.38109
1.38884
1.39749
1.40708
1.41784
1.42968
1.31034
1.31068
1.31101
1.31133
1.31165
1.31197
1.31232
1.31269
1.31309
1.31354
1.31406
1.31464
1.3153
1.31605
1.31691
1.31787
1.31896
1.32018
1.32154
1.32306
1.32474
1.32661
1.32867
1.33096
1.33348
1.33626
1.33933
1.34271
1.34645
1.35059
1.35516
1.36023
1.36585
1.37209
1.37902
1.38672
1.39531
1.40483
1.4155
1.42724
1.30807
1.30842
1.30877
1.30911
1.30944
1.30979
1.31016
1.31055
1.31098
1.31146
1.31199
1.3126
1.31328
1.31406
1.31493
1.31591
1.317
1.31823
1.31959
1.32111
1.32279
1.32465
1.32671
1.32899
1.3315
1.33427
1.33733
1.34071
1.34444
1.34857
1.35313
1.35817
1.36377
1.36997
1.37687
1.38452
1.39305
1.4025
1.41308
1.42472
1.30564
1.306
1.30636
1.30672
1.30708
1.30744
1.30783
1.30825
1.3087
1.3092
1.30977
1.31039
1.3111
1.31189
1.31278
1.31378
1.31488
1.31612
1.31749
1.319
1.32069
1.32255
1.32461
1.32689
1.3294
1.33218
1.33523
1.33861
1.34233
1.34645
1.35099
1.35603
1.3616
1.36778
1.37464
1.38224
1.39072
1.40009
1.41058
1.42211
1.30303
1.30342
1.30379
1.30416
1.30454
1.30492
1.30533
1.30577
1.30625
1.30678
1.30737
1.30802
1.30875
1.30956
1.31047
1.31148
1.3126
1.31385
1.31523
1.31676
1.31845
1.32032
1.32239
1.32467
1.32719
1.32996
1.33302
1.3364
1.34012
1.34423
1.34877
1.35379
1.35935
1.3655
1.37233
1.37989
1.38831
1.39762
1.40801
1.41944
1.30026
1.30066
1.30105
1.30144
1.30183
1.30224
1.30267
1.30313
1.30363
1.30419
1.3048
1.30547
1.30623
1.30706
1.30799
1.30902
1.31016
1.31142
1.31282
1.31436
1.31607
1.31795
1.32003
1.32232
1.32485
1.32763
1.3307
1.33407
1.3378
1.34191
1.34645
1.35146
1.35701
1.36314
1.36994
1.37747
1.38583
1.39507
1.40538
1.4167
1.29733
1.29773
1.29814
1.29854
1.29895
1.29937
1.29983
1.30031
1.30084
1.30142
1.30205
1.30276
1.30353
1.30439
1.30534
1.30639
1.30756
1.30884
1.31026
1.31182
1.31354
1.31544
1.31754
1.31984
1.32238
1.32517
1.32825
1.33164
1.33537
1.33949
1.34403
1.34904
1.35458
1.3607
1.36747
1.37496
1.38328
1.39246
1.40268
1.4139
1.29421
1.29463
1.29505
1.29546
1.29589
1.29634
1.29681
1.29732
1.29787
1.29847
1.29914
1.29986
1.30067
1.30155
1.30253
1.3036
1.30479
1.3061
1.30754
1.30912
1.31087
1.31279
1.3149
1.31723
1.31978
1.32259
1.32569
1.32909
1.33284
1.33696
1.34151
1.34652
1.35206
1.35816
1.36492
1.37238
1.38066
1.38977
1.39991
1.41104
1.29093
1.29136
1.29178
1.29222
1.29266
1.29313
1.29362
1.29415
1.29473
1.29536
1.29604
1.2968
1.29763
1.29854
1.29954
1.30064
1.30186
1.30319
1.30466
1.30627
1.30804
1.30999
1.31213
1.31447
1.31705
1.31989
1.323
1.32642
1.33018
1.33432
1.33888
1.3439
1.34944
1.35554
1.36228
1.36972
1.37795
1.38702
1.39708
1.40811
1.28746
1.2879
1.28834
1.28879
1.28925
1.28974
1.29025
1.29081
1.29141
1.29206
1.29277
1.29355
1.29441
1.29535
1.29638
1.29752
1.29876
1.30013
1.30162
1.30326
1.30506
1.30704
1.3092
1.31158
1.31418
1.31704
1.32018
1.32362
1.32741
1.33157
1.33614
1.34117
1.34671
1.35282
1.35955
1.36697
1.37517
1.38419
1.39418
1.40513
1.28382
1.28427
1.28472
1.28518
1.28566
1.28616
1.2867
1.28728
1.2879
1.28858
1.28932
1.29013
1.29102
1.29199
1.29306
1.29422
1.2955
1.2969
1.29842
1.3001
1.30193
1.30394
1.30613
1.30854
1.31117
1.31406
1.31723
1.3207
1.32451
1.32869
1.33328
1.33833
1.34388
1.34999
1.35672
1.36413
1.3723
1.38127
1.3912
1.40207
1.27998
1.28045
1.28091
1.28139
1.28189
1.28241
1.28297
1.28357
1.28422
1.28493
1.2857
1.28654
1.28746
1.28846
1.28956
1.29076
1.29207
1.2935
1.29506
1.29677
1.29864
1.30068
1.30291
1.30535
1.30802
1.31094
1.31414
1.31764
1.32148
1.32569
1.33031
1.33537
1.34094
1.34706
1.35379
1.36119
1.36934
1.37827
1.38814
1.39894
1.27596
1.27644
1.27692
1.27741
1.27793
1.27847
1.27906
1.27968
1.28036
1.28109
1.28189
1.28276
1.28372
1.28475
1.28588
1.28712
1.28846
1.28993
1.29153
1.29327
1.29518
1.29726
1.29953
1.302
1.30471
1.30767
1.3109
1.31444
1.31831
1.32255
1.3272
1.33229
1.33788
1.34401
1.35075
1.35814
1.36627
1.37518
1.385
1.39573
1.27175
1.27224
1.27274
1.27325
1.27379
1.27435
1.27496
1.27561
1.27631
1.27707
1.27791
1.27881
1.27979
1.28087
1.28203
1.2833
1.28468
1.28619
1.28783
1.28961
1.29155
1.29367
1.29598
1.2985
1.30125
1.30424
1.30752
1.31109
1.315
1.31928
1.32396
1.32908
1.33469
1.34084
1.34759
1.35499
1.36311
1.37199
1.38177
1.39243
1.26733
1.26783
1.26836
1.26889
1.26945
1.27004
1.27067
1.27134
1.27208
1.27287
1.27373
1.27467
1.27569
1.27679
1.27799
1.2793
1.28072
1.28226
1.28394
1.28577
1.28775
1.28991
1.29227
1.29483
1.29762
1.30066
1.30397
1.30759
1.31154
1.31586
1.32057
1.32573
1.33137
1.33755
1.34431
1.35171
1.35983
1.3687
1.37843
1.38905
1.26271
1.26322
1.26376
1.26432
1.2649
1.26552
1.26618
1.26688
1.26765
1.26847
1.26936
1.27033
1.27138
1.27253
1.27376
1.27511
1.27657
1.27815
1.27987
1.28174
1.28377
1.28598
1.28837
1.29098
1.29382
1.29691
1.30027
1.30393
1.30793
1.31228
1.31704
1.32223
1.32791
1.33411
1.34089
1.34831
1.35642
1.36528
1.37499
1.38556
1.25788
1.2584
1.25896
1.25954
1.26015
1.26079
1.26148
1.26221
1.26301
1.26386
1.26479
1.26579
1.26688
1.26806
1.26934
1.27072
1.27222
1.27385
1.27561
1.27753
1.2796
1.28185
1.2843
1.28695
1.28984
1.29298
1.29639
1.3001
1.30414
1.30855
1.31335
1.31858
1.32429
1.33053
1.33734
1.34477
1.35289
1.36174
1.37143
1.38196
1.25284
1.25337
1.25394
1.25454
1.25517
1.25584
1.25656
1.25732
1.25815
1.25904
1.26
1.26104
1.26216
1.26338
1.2647
1.26612
1.26767
1.26934
1.27115
1.27311
1.27523
1.27753
1.28003
1.28274
1.28567
1.28886
1.29233
1.29609
1.30018
1.30464
1.30948
1.31476
1.32052
1.32679
1.33363
1.34108
1.34921
1.35807
1.36774
1.37824
1.24758
1.24812
1.2487
1.24931
1.24997
1.25066
1.25141
1.25221
1.25307
1.25399
1.25499
1.25606
1.25723
1.25848
1.25984
1.26131
1.2629
1.26461
1.26647
1.26848
1.27066
1.27301
1.27556
1.27832
1.28131
1.28455
1.28807
1.29189
1.29604
1.30054
1.30544
1.31077
1.31657
1.32288
1.32976
1.33724
1.34539
1.35425
1.36391
1.37439
1.2421
1.24265
1.24323
1.24386
1.24454
1.24526
1.24603
1.24686
1.24775
1.24871
1.24974
1.25085
1.25206
1.25335
1.25476
1.25627
1.2579
1.25967
1.26157
1.26364
1.26586
1.26827
1.27087
1.27369
1.27674
1.28004
1.28361
1.28749
1.2917
1.29626
1.30121
1.3066
1.31244
1.3188
1.32571
1.33322
1.3414
1.35027
1.35993
1.37039
1.2364
1.23695
1.23754
1.23818
1.23888
1.23962
1.24042
1.24127
1.24219
1.24319
1.24426
1.24541
1.24665
1.24799
1.24943
1.25099
1.25267
1.25449
1.25645
1.25856
1.26084
1.2633
1.26596
1.26884
1.27195
1.27531
1.27894
1.28288
1.28715
1.29177
1.29678
1.30222
1.30812
1.31453
1.32148
1.32903
1.33723
1.34612
1.35578
1.36624
1.23045
1.23101
1.23162
1.23227
1.23298
1.23374
1.23456
1.23545
1.2364
1.23742
1.23853
1.23972
1.241
1.24238
1.24387
1.24548
1.24721
1.24907
1.25108
1.25325
1.25558
1.2581
1.26082
1.26376
1.26692
1.27035
1.27405
1.27805
1.28238
1.28706
1.29214
1.29764
1.30359
1.31005
1.31705
1.32464
1.33288
1.34179
1.35146
1.36192
1.22426
1.22483
1.22545
1.22612
1.22684
1.22762
1.22846
1.22937
1.23035
1.23141
1.23255
1.23378
1.2351
1.23652
1.23806
1.23971
1.24149
1.2434
1.24546
1.24769
1.25008
1.25266
1.25544
1.25843
1.26167
1.26515
1.26892
1.27298
1.27738
1.28213
1.28727
1.29283
1.29885
1.30536
1.31241
1.32005
1.32832
1.33726
1.34695
1.35741
1.21782
1.2184
1.21903
1.21971
1.22045
1.22125
1.22212
1.22305
1.22406
1.22515
1.22632
1.22759
1.22895
1.23041
1.23199
1.23369
1.23551
1.23748
1.2396
1.24187
1.24432
1.24696
1.2498
1.25286
1.25616
1.25971
1.26354
1.26768
1.27214
1.27696
1.28216
1.28778
1.29387
1.30044
1.30755
1.31523
1.32354
1.33252
1.34223
1.3527
1.21113
1.21171
1.21235
1.21305
1.2138
1.21462
1.21551
1.21647
1.21751
1.21863
1.21983
1.22113
1.22253
1.22404
1.22566
1.2274
1.22928
1.2313
1.23347
1.2358
1.23831
1.241
1.2439
1.24703
1.25039
1.25401
1.25791
1.26211
1.26664
1.27153
1.2768
1.28249
1.28864
1.29528
1.30244
1.31018
1.31854
1.32756
1.33729
1.34778
1.20416
1.20475
1.20541
1.20612
1.20689
1.20773
1.20864
1.20963
1.21069
1.21184
1.21308
1.21442
1.21585
1.2174
1.21907
1.22086
1.22278
1.22485
1.22707
1.22946
1.23202
1.23478
1.23774
1.24093
1.24435
1.24804
1.25201
1.25628
1.26088
1.26584
1.27118
1.27694
1.28316
1.28986
1.29708
1.30488
1.31329
1.32235
1.33212
1.34263
1.19692
1.19752
1.19819
1.19891
1.19971
1.20057
1.2015
1.20251
1.2036
1.20479
1.20606
1.20743
1.2089
1.21049
1.2122
1.21403
1.21601
1.21812
1.2204
1.22284
1.22546
1.22828
1.2313
1.23455
1.23804
1.2418
1.24583
1.25018
1.25485
1.25988
1.26529
1.27112
1.2774
1.28417
1.29146
1.29931
1.30777
1.31688
1.32669
1.33723
1.1894
1.19001
1.19069
1.19143
1.19224
1.19312
1.19408
1.19512
1.19624
1.19745
1.19876
1.20016
1.20168
1.2033
1.20505
1.20693
1.20895
1.21112
1.21345
1.21594
1.21862
1.2215
1.22458
1.2279
1.23145
1.23527
1.23938
1.24379
1.24853
1.25363
1.25911
1.26501
1.27136
1.2782
1.28555
1.29347
1.30198
1.31114
1.32099
1.33157
1.18158
1.18221
1.1829
1.18366
1.18449
1.18539
1.18637
1.18743
1.18858
1.18983
1.19117
1.19261
1.19416
1.19583
1.19762
1.19955
1.20161
1.20383
1.20621
1.20876
1.21149
1.21443
1.21757
1.22095
1.22457
1.22846
1.23263
1.23711
1.24192
1.24709
1.25264
1.25861
1.26503
1.27193
1.27936
1.28733
1.2959
1.30511
1.31501
1.32562
1.17346
1.1741
1.17481
1.17559
1.17644
1.17736
1.17837
1.17946
1.18064
1.18191
1.18328
1.18476
1.18635
1.18806
1.1899
1.19187
1.19398
1.19624
1.19867
1.20128
1.20407
1.20706
1.21027
1.2137
1.21739
1.22134
1.22558
1.23013
1.23501
1.24024
1.24587
1.25191
1.2584
1.26537
1.27285
1.28089
1.28952
1.29878
1.30872
1.31938
1.16503
1.16569
1.16641
1.16721
1.16808
1.16903
1.17006
1.17118
1.17238
1.17369
1.1751
1.17661
1.17824
1.17999
1.18187
1.18388
1.18604
1.18836
1.19084
1.19349
1.19634
1.19939
1.20265
1.20615
1.2099
1.21391
1.21822
1.22283
1.22778
1.23309
1.23878
1.24489
1.25145
1.25848
1.26603
1.27413
1.28282
1.29213
1.30212
1.31282
1.15628
1.15696
1.1577
1.15851
1.15941
1.16038
1.16144
1.16258
1.16382
1.16515
1.1666
1.16815
1.16981
1.1716
1.17352
1.17558
1.17779
1.18015
1.18268
1.18539
1.1883
1.1914
1.19473
1.19828
1.20209
1.20617
1.21054
1.21522
1.22024
1.22561
1.23137
1.23755
1.24417
1.25127
1.25888
1.26704
1.27579
1.28515
1.29519
1.30593
1.1472
1.14789
1.14865
1.14949
1.1504
1.1514
1.15248
1.15365
1.15492
1.15629
1.15777
1.15935
1.16106
1.16289
1.16485
1.16696
1.16921
1.17162
1.17421
1.17697
1.17993
1.18309
1.18647
1.19009
1.19396
1.1981
1.20254
1.20728
1.21236
1.2178
1.22363
1.22987
1.23656
1.24372
1.25139
1.25961
1.26841
1.27783
1.28791
1.29869
1.13776
1.13847
1.13925
1.14011
1.14105
1.14207
1.14318
1.14438
1.14568
1.14708
1.14859
1.15022
1.15196
1.15383
1.15584
1.15799
1.16029
1.16276
1.16539
1.16821
1.17122
1.17444
1.17788
1.18156
1.18549
1.18969
1.19419
1.199
1.20414
1.20965
1.21554
1.22185
1.22859
1.23582
1.24355
1.25183
1.26068
1.27015
1.28028
1.2911
1.12795
1.12868
1.12948
1.13036
1.13132
1.13237
1.13351
1.13474
1.13607
1.13751
1.13906
1.14072
1.1425
1.14442
1.14647
1.14867
1.15102
1.15353
1.15621
1.15909
1.16215
1.16543
1.16893
1.17267
1.17666
1.18093
1.18549