/*--------------------------------*- C++ -*----------------------------------*\
| =========                 |                                                 |
| \\      /  F ield         | OpenFOAM: The Open Source CFD Toolbox           |
|  \\    /   O peration     | Version:  2506                                  |
|   \\  /    A nd           | Website:  www.openfoam.com                      |
|    \\/     M anipulation  |                                                 |
\*---------------------------------------------------------------------------*/
FoamFile
{
    version     2.0;
    format      ascii;
    arch        "LSB;label=32;scalar=64";
    class       volScalarField;
    location    "6000";
    object      nut;
}
// * * * * * * * * * * * * * * * * * * * * * * * * * * * * * * * * * * * * * //

dimensions      [0 2 -1 0 0 0 0];

internalField   nonuniform List<scalar> 
72100
(
1.37098e-09
1.35841e-09
1.34135e-09
1.32331e-09
1.30163e-09
1.27807e-09
1.25266e-09
1.2257e-09
1.19734e-09
1.16765e-09
1.1367e-09
1.10454e-09
1.07118e-09
1.03665e-09
1.00096e-09
9.64121e-10
9.26146e-10
8.87048e-10
8.46852e-10
8.05534e-10
7.63088e-10
7.19624e-10
6.75243e-10
6.30043e-10
5.84052e-10
5.37399e-10
4.90208e-10
4.42776e-10
3.95212e-10
3.48084e-10
3.01393e-10
2.56274e-10
2.12233e-10
1.71626e-10
1.32508e-10
9.97636e-11
6.80308e-11
4.67955e-11
2.45577e-11
1.63615e-11
7.11322e-09
7.08866e-09
7.06348e-09
7.02304e-09
6.97118e-09
6.91143e-09
6.84439e-09
6.77084e-09
6.69111e-09
6.60531e-09
6.51352e-09
6.41574e-09
6.31194e-09
6.2021e-09
6.08618e-09
5.96414e-09
5.83593e-09
5.70149e-09
5.56068e-09
5.41254e-09
5.25685e-09
5.09426e-09
4.92503e-09
4.74907e-09
4.56544e-09
4.37433e-09
4.17604e-09
3.97049e-09
3.75789e-09
3.53889e-09
3.31381e-09
3.08395e-09
2.84979e-09
2.61358e-09
2.37561e-09
2.13937e-09
1.90551e-09
1.67725e-09
1.45999e-09
1.24927e-09
1.25866e-07
1.25937e-07
1.25731e-07
1.25218e-07
1.24534e-07
1.23721e-07
1.22791e-07
1.21754e-07
1.20613e-07
1.1937e-07
1.18023e-07
1.16573e-07
1.15018e-07
1.13356e-07
1.11587e-07
1.09709e-07
1.0772e-07
1.05619e-07
1.03401e-07
1.01046e-07
9.85507e-08
9.59249e-08
9.31722e-08
9.02884e-08
8.72522e-08
8.40648e-08
8.073e-08
7.72401e-08
7.35966e-08
6.98026e-08
6.58643e-08
6.17879e-08
5.75924e-08
5.32828e-08
4.89001e-08
4.44299e-08
3.99848e-08
3.54602e-08
3.11848e-08
2.67867e-08
8.98771e-07
9.01368e-07
9.00394e-07
8.97274e-07
8.93069e-07
8.88063e-07
8.82309e-07
8.7587e-07
8.68758e-07
8.60968e-07
8.52493e-07
8.43319e-07
8.3343e-07
8.22811e-07
8.11445e-07
7.99318e-07
7.8641e-07
7.72703e-07
7.58159e-07
7.42621e-07
7.26051e-07
7.08519e-07
6.90036e-07
6.70555e-07
6.49906e-07
6.28086e-07
6.05105e-07
5.80884e-07
5.55416e-07
5.28694e-07
5.00747e-07
4.71583e-07
4.41332e-07
4.09975e-07
3.77838e-07
3.44712e-07
3.11555e-07
2.77363e-07
2.44948e-07
2.11049e-07
3.39068e-06
3.40333e-06
3.40143e-06
3.39239e-06
3.38013e-06
3.36558e-06
3.34886e-06
3.33012e-06
3.30935e-06
3.28648e-06
3.26144e-06
3.23415e-06
3.20451e-06
3.17243e-06
3.13783e-06
3.10061e-06
3.06067e-06
3.0179e-06
2.97213e-06
2.9227e-06
2.86944e-06
2.81255e-06
2.75199e-06
2.68752e-06
2.61838e-06
2.54447e-06
2.46573e-06
2.38169e-06
2.29219e-06
2.19702e-06
2.09611e-06
1.98923e-06
1.87673e-06
1.75814e-06
1.6347e-06
1.50495e-06
1.37311e-06
1.23383e-06
1.10033e-06
9.56261e-07
8.31582e-06
8.34131e-06
8.33841e-06
8.32202e-06
8.30007e-06
8.2746e-06
8.24561e-06
8.21338e-06
8.17775e-06
8.13847e-06
8.09528e-06
8.04793e-06
7.99611e-06
7.93956e-06
7.87803e-06
7.81124e-06
7.73889e-06
7.66066e-06
7.57607e-06
7.48346e-06
7.38232e-06
7.27308e-06
7.15549e-06
7.02879e-06
6.89093e-06
6.74154e-06
6.58013e-06
6.40525e-06
6.21611e-06
6.01169e-06
5.79127e-06
5.55351e-06
5.29857e-06
5.02408e-06
4.73241e-06
4.41779e-06
4.09105e-06
3.73414e-06
3.38544e-06
2.99128e-06
1.54647e-05
1.54927e-05
1.54851e-05
1.54602e-05
1.54287e-05
1.53939e-05
1.53554e-05
1.53137e-05
1.52684e-05
1.52189e-05
1.51648e-05
1.51054e-05
1.50401e-05
1.49685e-05
1.489e-05
1.48041e-05
1.47103e-05
1.4608e-05
1.44963e-05
1.43719e-05
1.4234e-05
1.40834e-05
1.39196e-05
1.37411e-05
1.35441e-05
1.33277e-05
1.3091e-05
1.28309e-05
1.25458e-05
1.22332e-05
1.18911e-05
1.15165e-05
1.11083e-05
1.06608e-05
1.01765e-05
9.642e-06
9.07558e-06
8.43672e-06
7.80027e-06
7.04485e-06
2.42835e-05
2.42907e-05
2.42596e-05
2.42246e-05
2.41889e-05
2.41521e-05
2.41047e-05
2.40557e-05
2.40046e-05
2.39503e-05
2.38921e-05
2.38289e-05
2.37598e-05
2.36841e-05
2.36008e-05
2.35091e-05
2.34084e-05
2.32976e-05
2.31756e-05
2.30366e-05
2.28794e-05
2.27059e-05
2.25153e-05
2.23057e-05
2.20704e-05
2.18089e-05
2.15195e-05
2.11974e-05
2.08403e-05
2.04445e-05
2.00066e-05
1.95217e-05
1.89876e-05
1.83951e-05
1.77464e-05
1.70196e-05
1.62394e-05
1.53404e-05
1.44336e-05
1.3317e-05
3.38996e-05
3.38579e-05
3.37961e-05
3.37335e-05
3.36736e-05
3.36201e-05
3.35721e-05
3.35301e-05
3.3493e-05
3.34595e-05
3.34281e-05
3.33971e-05
3.33653e-05
3.33314e-05
3.32942e-05
3.32528e-05
3.32061e-05
3.31531e-05
3.3093e-05
3.2979e-05
3.28162e-05
3.26345e-05
3.2433e-05
3.22092e-05
3.19527e-05
3.16637e-05
3.13403e-05
3.09756e-05
3.0567e-05
3.01097e-05
2.95994e-05
2.90296e-05
2.83977e-05
2.76915e-05
2.69133e-05
2.60345e-05
2.50852e-05
2.39797e-05
2.28594e-05
2.14518e-05
4.46361e-05
4.45643e-05
4.44653e-05
4.43635e-05
4.42656e-05
4.41777e-05
4.41023e-05
4.40383e-05
4.39846e-05
4.39393e-05
4.39002e-05
4.38653e-05
4.38329e-05
4.3801e-05
4.3768e-05
4.37326e-05
4.36932e-05
4.36484e-05
4.35969e-05
4.35299e-05
4.34429e-05
4.33389e-05
4.32182e-05
4.30802e-05
4.2832e-05
4.25267e-05
4.2181e-05
4.17849e-05
4.13362e-05
4.08294e-05
4.02592e-05
3.96185e-05
3.89042e-05
3.81021e-05
3.72147e-05
3.62093e-05
3.51205e-05
3.38488e-05
3.25593e-05
3.09294e-05
5.65004e-05
5.64028e-05
5.62626e-05
5.6112e-05
5.59632e-05
5.58257e-05
5.57041e-05
5.55993e-05
5.551e-05
5.54339e-05
5.53682e-05
5.53108e-05
5.52594e-05
5.52114e-05
5.51647e-05
5.51171e-05
5.50669e-05
5.50119e-05
5.495e-05
5.48817e-05
5.48019e-05
5.47052e-05
5.45906e-05
5.44567e-05
5.42859e-05
5.40766e-05
5.37996e-05
5.33771e-05
5.28931e-05
5.23409e-05
5.17147e-05
5.1007e-05
5.02144e-05
4.93216e-05
4.83312e-05
4.72081e-05
4.59903e-05
4.45708e-05
4.31317e-05
4.13203e-05
6.94257e-05
6.93058e-05
6.91223e-05
6.89157e-05
6.8704e-05
6.85018e-05
6.83165e-05
6.8153e-05
6.80102e-05
6.78848e-05
6.77741e-05
6.76769e-05
6.759e-05
6.75097e-05
6.74336e-05
6.73592e-05
6.72838e-05
6.72048e-05
6.71189e-05
6.70276e-05
6.69271e-05
6.68102e-05
6.66733e-05
6.6513e-05
6.63324e-05
6.61183e-05
6.58587e-05
6.55364e-05
6.50707e-05
6.44724e-05
6.37883e-05
6.30111e-05
6.21372e-05
6.11505e-05
6.00535e-05
5.88101e-05
5.74606e-05
5.58947e-05
5.43061e-05
5.23284e-05
8.33422e-05
8.32041e-05
8.29776e-05
8.27109e-05
8.24275e-05
8.21478e-05
8.18836e-05
8.16448e-05
8.14297e-05
8.1235e-05
8.10592e-05
8.09033e-05
8.07617e-05
8.06303e-05
8.05072e-05
8.03887e-05
8.02716e-05
8.01527e-05
8.00279e-05
7.98968e-05
7.97567e-05
7.96006e-05
7.94228e-05
7.92175e-05
7.89904e-05
7.87293e-05
7.84248e-05
7.80771e-05
7.76513e-05
7.71091e-05
7.63614e-05
7.55082e-05
7.45455e-05
7.34568e-05
7.22437e-05
7.08704e-05
6.9378e-05
6.76572e-05
6.59063e-05
6.37605e-05
9.81509e-05
9.79966e-05
9.77317e-05
9.74084e-05
9.70541e-05
9.66944e-05
9.63461e-05
9.6021e-05
9.57172e-05
9.54343e-05
9.51739e-05
9.49395e-05
9.4722e-05
9.45181e-05
9.43276e-05
9.41447e-05
9.39664e-05
9.3789e-05
9.36075e-05
9.34193e-05
9.32218e-05
9.30085e-05
9.27726e-05
9.25058e-05
9.22104e-05
9.18774e-05
9.14965e-05
9.10694e-05
9.05806e-05
9.00108e-05
8.93199e-05
8.84143e-05
8.73526e-05
8.61506e-05
8.48082e-05
8.3292e-05
8.16402e-05
7.97504e-05
7.78163e-05
7.54912e-05
0.000113632
0.000113452
0.000113171
0.000112816
0.00011242
0.000112011
0.000111607
0.000111202
0.000110805
0.000110425
0.00011007
0.000109741
0.000109427
0.00010913
0.00010885
0.000108581
0.000108319
0.000108062
0.000107803
0.000107538
0.000107265
0.000106976
0.000106663
0.000106317
0.000105936
0.000105511
0.000105032
0.000104497
0.000103896
0.000103219
0.000102443
0.000101529
0.000100452
9.91689e-05
9.76815e-05
9.60069e-05
9.4176e-05
9.21005e-05
8.99567e-05
8.74376e-05
0.000129208
0.000129003
0.000128741
0.000128437
0.000128109
0.000127771
0.000127435
0.000127005
0.000126546
0.000126102
0.000125675
0.000125246
0.000124827
0.000124425
0.000124039
0.000123661
0.000123294
0.000122934
0.000122575
0.000122214
0.000121844
0.000121459
0.000121051
0.000120607
0.000120122
0.000119587
0.000118991
0.000118326
0.000117586
0.00011676
0.000115833
0.000114788
0.000113572
0.000112195
0.000110581
0.000108842
0.000106782
0.000104655
0.000102199
9.95424e-05
0.000145384
0.000145156
0.00014486
0.000144513
0.000144135
0.000143742
0.000143346
0.000142956
0.000142574
0.000142203
0.000141816
0.000141321
0.000140831
0.000140345
0.000139849
0.000139353
0.000138863
0.000138379
0.000137898
0.000137418
0.000136932
0.000136431
0.000135907
0.000135346
0.000134738
0.000134074
0.000133342
0.000132531
0.00013163
0.000130632
0.000129517
0.00012828
0.000126864
0.00012529
0.000123455
0.000121493
0.000119141
0.000116858
0.000113922
0.000111645
0.000162143
0.000161894
0.000161566
0.000161177
0.00016075
0.0001603
0.000159842
0.000159385
0.000158933
0.00015849
0.000158057
0.000157634
0.000157219
0.000156758
0.000156188
0.000155607
0.000154995
0.000154374
0.000153753
0.000153135
0.000152512
0.000151876
0.000151216
0.000150517
0.000149767
0.000148956
0.000148068
0.000147093
0.000146014
0.000144823
0.000143498
0.000142038
0.000140386
0.000138562
0.000136459
0.000134204
0.000131526
0.000128914
0.000125555
0.000123005
0.000179473
0.000179206
0.000178847
0.000178418
0.000177941
0.000177434
0.000176913
0.000176386
0.000175861
0.000175342
0.000174831
0.000174327
0.000173831
0.000173339
0.00017285
0.000172319
0.000171633
0.000170893
0.000170123
0.000169351
0.000168576
0.000167788
0.000166972
0.000166116
0.000165205
0.000164226
0.000163165
0.000162005
0.000160731
0.00015933
0.000157778
0.000156072
0.000154159
0.000152055
0.000149655
0.000147072
0.000144044
0.000141036
0.00013726
0.00013421
0.000197366
0.000197082
0.000196695
0.000196227
0.000195701
0.000195138
0.000194552
0.000193954
0.000193353
0.000192754
0.000192159
0.00019157
0.000190986
0.000190405
0.000189826
0.000189245
0.000188658
0.000187888
0.00018699
0.000186058
0.000185119
0.000184163
0.000183177
0.000182145
0.000181054
0.000179889
0.000178633
0.000177271
0.000175783
0.000174155
0.000172359
0.000170389
0.000168195
0.00016579
0.00016307
0.00016014
0.000156741
0.000153311
0.000149106
0.000145489
0.000215815
0.000215517
0.000215103
0.000214597
0.000214025
0.000213405
0.000212754
0.000212085
0.000211406
0.000210724
0.000210042
0.000209362
0.000208685
0.000208009
0.000207332
0.000206651
0.000205964
0.000205265
0.000204335
0.000203246
0.000202139
0.000201006
0.000199834
0.000198611
0.000197322
0.000195952
0.000194484
0.0001929
0.000191179
0.000189305
0.000187248
0.000184998
0.000182506
0.000179782
0.000176723
0.000173428
0.000169641
0.000165775
0.000161124
0.000156933
0.000234818
0.000234507
0.000234068
0.000233527
0.000232908
0.000232233
0.000231518
0.000230777
0.000230019
0.000229251
0.000228479
0.000227704
0.000226929
0.000226151
0.00022537
0.000224583
0.000223787
0.000222977
0.00022212
0.000220909
0.000219638
0.00021832
0.000216952
0.000215524
0.000214021
0.00021243
0.00021073
0.000208906
0.000206934
0.000204795
0.000202459
0.000199912
0.000197104
0.000194045
0.000190628
0.000186952
0.000182758
0.000178447
0.000173333
0.000168576
0.000254372
0.000254049
0.000253587
0.000253012
0.000252349
0.000251619
0.000250841
0.000250028
0.00024919
0.000248336
0.000247471
0.000246598
0.00024572
0.000244836
0.000243945
0.000243045
0.000242133
0.000241205
0.000240255
0.000239045
0.000237616
0.000236109
0.000234538
0.000232894
0.000231165
0.000229337
0.000227389
0.000225306
0.000223064
0.000220642
0.000218008
0.000215146
0.000212005
0.000208592
0.0002048
0.000200727
0.00019611
0.000191342
0.000185745
0.000180434
0.000274477
0.000274143
0.000273659
0.000273052
0.000272346
0.000271564
0.000270723
0.000269838
0.00026892
0.000267979
0.00026702
0.000266047
0.000265063
0.000264068
0.000263063
0.000262044
0.00026101
0.000259955
0.000258876
0.000257668
0.000256075
0.00025438
0.000252602
0.000250735
0.000248769
0.000246689
0.000244479
0.00024212
0.000239589
0.000236866
0.000233915
0.000230721
0.000227226
0.000223443
0.000219256
0.000214769
0.00020971
0.000204475
0.000198376
0.000192515
0.000295132
0.000294789
0.000294285
0.000293647
0.0002929
0.000292066
0.000291164
0.000290208
0.000289211
0.000288182
0.000287128
0.000286053
0.000284961
0.000283852
0.000282728
0.000281585
0.000280423
0.000279236
0.000278021
0.000276771
0.00027502
0.000273141
0.000271155
0.000269059
0.000266846
0.000264504
0.000262017
0.000259368
0.000256532
0.000253488
0.000250201
0.000246655
0.00024279
0.000238617
0.000234017
0.000229097
0.000223576
0.00021786
0.000211241
0.00020483
0.000316339
0.000315987
0.000315464
0.000314797
0.000314011
0.000313127
0.000312165
0.00031114
0.000310065
0.000308948
0.000307798
0.00030662
0.000305418
0.000304193
0.000302946
0.000301676
0.000300381
0.000299056
0.000297697
0.000296299
0.000294464
0.000292404
0.000290208
0.000287878
0.000285411
0.000282798
0.000280023
0.000277069
0.000273911
0.000270531
0.00026689
0.000262973
0.000258717
0.000254135
0.000249102
0.000243731
0.00023773
0.000231515
0.000224357
0.000217392
0.000338099
0.00033774
0.0003372
0.000336505
0.00033568
0.000334749
0.000333729
0.000332636
0.000331482
0.000330279
0.000329034
0.000327752
0.000326439
0.000325096
0.000323724
0.000322322
0.00032089
0.000319423
0.000317916
0.000316363
0.000314431
0.000312186
0.000309775
0.000307206
0.000304479
0.000301586
0.000298512
0.000295241
0.000291749
0.000288016
0.000284004
0.000279697
0.000275031
0.00027002
0.000264534
0.000258692
0.00025219
0.000245461
0.000237744
0.000230215
0.000360416
0.00036005
0.000359493
0.000358772
0.000357911
0.000356933
0.000355856
0.000354697
0.000353467
0.000352178
0.000350838
0.000349453
0.000348028
0.000346565
0.000345066
0.000343531
0.000341958
0.000340344
0.000338684
0.000336972
0.000334949
0.000332504
0.000329868
0.000327054
0.000324061
0.000320882
0.000317501
0.000313903
0.000310063
0.000305963
0.000301564
0.00029685
0.000291755
0.000286296
0.000280336
0.000274003
0.000266978
0.000259717
0.000251421
0.000243318
0.000383292
0.000382919
0.000382347
0.0003816
0.000380705
0.000379682
0.000378551
0.000377326
0.000376022
0.000374648
0.000373214
0.000371726
0.000370189
0.000368607
0.00036698
0.000365309
0.000363593
0.000361829
0.000360012
0.000358136
0.000356041
0.000353371
0.0003505
0.000347435
0.000344172
0.0003407
0.000337005
0.00033307
0.000328872
0.000324392
0.00031959
0.000314453
0.000308911
0.000302984
0.00029653
0.000289687
0.000282118
0.000274305
0.000265409
0.000256719
0.00040673
0.000406351
0.000405764
0.000404994
0.000404066
0.000403
0.000401815
0.000400527
0.00039915
0.000397693
0.000396166
0.000394576
0.000392928
0.000391225
0.00038947
0.000387662
0.000385801
0.000383885
0.000381908
0.000379864
0.000377701
0.000374795
0.000371682
0.000368361
0.000364822
0.000361052
0.000357037
0.000352758
0.000348192
0.000343321
0.000338102
0.000332526
0.000326519
0.000320106
0.000313139
0.000305765
0.000297631
0.000289247
0.00027973
0.000270438
0.000430734
0.000430349
0.000429748
0.000428956
0.000427995
0.000426888
0.000425652
0.000424303
0.000422854
0.000421316
0.000419698
0.000418007
0.000416248
0.000414426
0.000412542
0.000410597
0.00040859
0.000406519
0.000404379
0.000402164
0.000399869
0.00039678
0.000393424
0.000389843
0.000386023
0.000381951
0.000377609
0.00037298
0.000368037
0.000362764
0.000357118
0.000351088
0.000344601
0.000337684
0.000330184
0.000322259
0.000313539
0.000304564
0.000294405
0.000284496
0.000455306
0.000454916
0.000454303
0.000453489
0.000452498
0.00045135
0.000450065
0.000448656
0.000447137
0.00044552
0.000443812
0.000442022
0.000440154
0.000438213
0.000436201
0.000434118
0.000431965
0.000429738
0.000427434
0.000425047
0.000422568
0.000419332
0.000415735
0.00041189
0.000407786
0.000403407
0.000398733
0.000393747
0.00038842
0.000382736
0.000376651
0.000370156
0.000363173
0.000355737
0.000347685
0.000339191
0.000329864
0.000320279
0.000309455
0.000298914
0.000480451
0.000480056
0.000479431
0.000478597
0.000477577
0.000476391
0.000475057
0.00047359
0.000472004
0.000470309
0.000468513
0.000466625
0.00046465
0.000462591
0.000460452
0.000458232
0.000455932
0.00045355
0.00045108
0.000448518
0.000445855
0.000442463
0.000438622
0.000434512
0.00043012
0.000425429
0.000420418
0.000415069
0.000409352
0.00040325
0.000396716
0.000389743
0.000382252
0.000374281
0.00036566
0.000356579
0.000346626
0.000336412
0.000324903
0.000313713
0.000506172
0.000505773
0.000505136
0.000504283
0.000503235
0.000502012
0.000500631
0.000499109
0.000497457
0.000495686
0.000493805
0.000491821
0.00048974
0.000487565
0.0004853
0.000482944
0.000480498
0.00047796
0.000475325
0.000472587
0.000469737
0.000466188
0.000462097
0.000457718
0.000453033
0.000448026
0.000442674
0.000436956
0.000430842
0.000424313
0.000417322
0.000409863
0.000401851
0.000393331
0.000384126
0.000374441
0.000363842
0.000352983
0.000340767
0.000328914
0.000532472
0.00053207
0.000531422
0.000530551
0.000529476
0.000528217
0.000526792
0.000525215
0.000523499
0.000521654
0.00051969
0.000517612
0.000515427
0.000513138
0.000510748
0.000508258
0.000505668
0.000502974
0.000500173
0.00049726
0.000494223
0.000490516
0.000486168
0.000481515
0.000476534
0.000471206
0.000465507
0.000459415
0.000452898
0.000445936
0.00043848
0.000430524
0.00042198
0.0004129
0.000403096
0.000392793
0.00038153
0.000370008
0.000357066
0.000344536
0.000559355
0.00055895
0.000558293
0.000557404
0.000556303
0.000555011
0.000553542
0.000551913
0.000550135
0.000548218
0.000546172
0.000544002
0.000541715
0.000539314
0.000536802
0.000534179
0.000531445
0.000528598
0.000525632
0.000522543
0.00051932
0.000515456
0.000510844
0.00050591
0.000500628
0.000494974
0.000488923
0.000482452
0.000475525
0.000468124
0.000460194
0.000451734
0.000442649
0.000432998
0.000422582
0.000411646
0.000399705
0.000387506
0.000373819
0.000360598
0.000586825
0.000586417
0.000585751
0.000584845
0.00058372
0.000582395
0.000580885
0.000579204
0.000577366
0.00057538
0.000573254
0.000570995
0.000568608
0.000566098
0.000563465
0.000560711
0.000557836
0.000554836
0.000551707
0.000548443
0.000545034
0.000541011
0.000536129
0.00053091
0.00052532
0.000519335
0.000512927
0.00050607
0.000498729
0.000490881
0.000482472
0.000473498
0.000463863
0.00045363
0.000442592
0.000431013
0.000418377
0.000405488
0.000391039
0.000377117
0.000614884
0.000614474
0.000613799
0.000612878
0.00061173
0.000610372
0.000608822
0.000607093
0.000605196
0.000603142
0.000600939
0.000598593
0.000596109
0.000593491
0.00059074
0.000587858
0.000584843
0.000581693
0.000578402
0.000574965
0.000571371
0.000567181
0.000562026
0.000556516
0.000550613
0.000544292
0.000537521
0.000530274
0.000522511
0.00051421
0.000505314
0.00049582
0.000485626
0.000474804
0.000463132
0.000450899
0.000437557
0.000423966
0.000408742
0.000394108
0.000643535
0.000643123
0.00064244
0.000641504
0.000640334
0.000638947
0.000637358
0.000635581
0.000633628
0.000631508
0.00062923
0.000626799
0.00062422
0.000621497
0.000618631
0.000615623
0.000612471
0.000609172
0.000605722
0.000602114
0.000598335
0.000593966
0.000588536
0.00058273
0.00057651
0.000569847
0.000562707
0.000555062
0.000546872
0.000538112
0.000528721
0.0005187
0.000507939
0.000496519
0.000484205
0.000471309
0.000457251
0.00044295
0.000426937
0.000411584
0.00067278
0.000672367
0.000671677
0.000670727
0.000669536
0.00066812
0.000666494
0.000664672
0.000662664
0.000660481
0.000658129
0.000655615
0.000652944
0.000650119
0.00064714
0.000644008
0.000640722
0.000637278
0.000633671
0.000629893
0.000625932
0.000621364
0.000615656
0.000609551
0.000603009
0.000595998
0.000588484
0.000580436
0.000571811
0.000562585
0.000552693
0.000542137
0.000530801
0.000518776
0.000505812
0.000492246
0.000477462
0.000462444
0.000445631
0.000429555
0.000702621
0.000702208
0.000701511
0.000700549
0.000699337
0.000697894
0.000696232
0.000694366
0.000692306
0.000690061
0.000687638
0.000685045
0.000682284
0.000679358
0.00067627
0.000673017
0.0006696
0.000666013
0.000662251
0.000658306
0.000654165
0.000649374
0.000643385
0.000636978
0.000630108
0.000622745
0.000614849
0.000606392
0.000597325
0.000587626
0.000577225
0.000566127
0.00055421
0.000541572
0.00052795
0.000513708
0.000498191
0.00048245
0.000464831
0.000448029
0.000733059
0.000732646
0.000731944
0.00073097
0.00072974
0.00072827
0.000726574
0.000724666
0.000722555
0.00072025
0.000717759
0.000715088
0.00071224
0.000709217
0.000706021
0.000702652
0.000699105
0.000695379
0.000691466
0.000687357
0.000683038
0.000677993
0.000671721
0.000665007
0.000657806
0.000650083
0.0006418
0.000632926
0.000623411
0.00061323
0.000602313
0.000590665
0.000578158
0.000564901
0.000550615
0.00053569
0.000519435
0.000502968
0.000484538
0.000467008
0.000764096
0.000763684
0.000762977
0.000761992
0.000760744
0.000759249
0.000757521
0.000755572
0.000753412
0.00075105
0.000748493
0.000745747
0.000742814
0.000739697
0.000736397
0.000732913
0.000729241
0.000725378
0.000721316
0.000717046
0.000712552
0.00070722
0.000700662
0.000693637
0.000686097
0.000678009
0.000669331
0.000660032
0.00065006
0.000639391
0.000627948
0.000615743
0.000602639
0.000588756
0.000573799
0.000558187
0.000541188
0.000523995
0.000504749
0.000486495
0.000795731
0.000795322
0.000794611
0.000793616
0.000792351
0.000790833
0.000789074
0.000787085
0.000784879
0.000782461
0.000779841
0.000777021
0.000774006
0.000770798
0.000767397
0.000763801
0.000760008
0.000756011
0.000751805
0.000747377
0.000742709
0.000737056
0.000730207
0.000722864
0.000714978
0.000706516
0.000697435
0.000687703
0.000677266
0.000666099
0.000654123
0.000641352
0.000627643
0.000613127
0.000597492
0.00058119
0.000563443
0.000545523
0.000525462
0.000506487
0.000827966
0.000827558
0.000826845
0.00082584
0.000824561
0.00082302
0.000821231
0.000819206
0.000816954
0.000814484
0.000811801
0.000808911
0.000805818
0.000802521
0.000799022
0.000795318
0.000791406
0.000787279
0.000782931
0.000778348
0.000773509
0.000767502
0.000760356
0.000752684
0.000744443
0.000735597
0.000726104
0.000715929
0.000705017
0.000693343
0.000680825
0.000667479
0.000653157
0.000638001
0.000621682
0.000604686
0.000586189
0.000567542
0.000546667
0.000526978
0.000860798
0.000860394
0.000859678
0.000858666
0.000857372
0.00085581
0.000853993
0.000851933
0.000849638
0.000847116
0.000844375
0.000841417
0.000838247
0.000834865
0.00083127
0.000827462
0.000823434
0.000819182
0.000814695
0.00080996
0.000804953
0.000798559
0.000791104
0.000783091
0.000774482
0.000765243
0.000755327
0.000744699
0.000733302
0.000721111
0.00070804
0.000694111
0.000679167
0.000663365
0.000646356
0.000628662
0.000609412
0.000590041
0.000568354
0.000547958
0.000894225
0.000893825
0.000893108
0.00089209
0.000890783
0.000889201
0.000887358
0.000885264
0.000882928
0.000880358
0.000877559
0.000874537
0.000871293
0.000867828
0.000864142
0.000860232
0.000856093
0.000851717
0.000847096
0.000842213
0.000837037
0.000830224
0.000822441
0.000814073
0.000805085
0.00079544
0.00078509
0.000773999
0.000762106
0.000749388
0.000735754
0.000721232
0.000705657
0.000689201
0.000671496
0.000653101
0.000633097
0.000613005
0.00059051
0.000569416
0.000928246
0.000927851
0.000927134
0.00092611
0.000924791
0.000923192
0.000921323
0.000919197
0.000916822
0.000914206
0.000911353
0.000908268
0.000904953
0.000901409
0.000897635
0.000893627
0.000889379
0.000884885
0.000880132
0.000875103
0.000869759
0.000862477
0.000854348
0.000845613
0.000836234
0.000826173
0.000815378
0.000803813
0.000791412
0.000778156
0.000763949
0.000748824
0.000732609
0.000715491
0.000697085
0.000677985
0.000657226
0.000636415
0.000613119
0.000591336
0.000962857
0.000962468
0.000961752
0.000960723
0.000959394
0.000957777
0.000955886
0.00095373
0.000951318
0.000948657
0.000945752
0.000942608
0.000939225
0.000935605
0.000931745
0.000927643
0.00092329
0.00091868
0.000913799
0.000908627
0.000903113
0.000895277
0.000886798
0.000877689
0.000867911
0.000857423
0.000846172
0.00083412
0.000821202
0.000807395
0.000792605
0.000776866
0.000760002
0.000742215
0.000723101
0.000703294
0.000681779
0.000660252
0.000636162
0.0006137
0.000998053
0.000997671
0.000996957
0.000995925
0.000994586
0.000992954
0.000991042
0.000988857
0.00098641
0.000983707
0.000980754
0.000977552
0.000974105
0.000970412
0.00096647
0.000962276
0.000957823
0.000953101
0.000948095
0.000942781
0.000936722
0.000928577
0.00091976
0.000910274
0.000900089
0.000889166
0.000877448
0.0008649
0.000851451
0.000837084
0.000821698
0.000805336
0.000787814
0.00076935
0.000749522
0.000729005
0.000706733
0.000684495
0.000659619
0.000636488
0.00103383
0.00103346
0.00103274
0.00103171
0.00103036
0.00102872
0.00102678
0.00102457
0.00102209
0.00101935
0.00101635
0.0010131
0.00100959
0.00100582
0.0010018
0.000997523
0.000992972
0.000988141
0.000983013
0.000977558
0.000970768
0.000962356
0.000953206
0.000943342
0.000932744
0.000921376
0.000909182
0.000896125
0.000882136
0.000867196
0.000851204
0.000834208
0.000816018
0.00079687
0.000776323
0.000755093
0.000732066
0.00070912
0.000683466
0.000659677
0.00107018
0.00106981
0.00106911
0.00106807
0.00106672
0.00106506
0.00106311
0.00106087
0.00105836
0.00105558
0.00105254
0.00104923
0.00104567
0.00104184
0.00103774
0.00103338
0.00102873
0.00102379
0.00101855
0.00101295
0.00100538
0.000996617
0.000987114
0.000976864
0.000965846
0.000954024
0.000941344
0.000927768
0.000913227
0.000897704
0.000881094
0.000863455
0.000844589
0.000824749
0.000803478
0.000781533
0.000757751
0.000734102
0.000707679
0.000683241
0.00110709
0.00110674
0.00110604
0.001105
0.00110364
0.00110197
0.00110001
0.00109775
0.00109521
0.0010924
0.00108931
0.00108596
0.00108233
0.00107844
0.00107428
0.00106983
0.00106509
0.00106005
0.00105469
0.00104894
0.00104052
0.00103135
0.00102147
0.00101082
0.000999366
0.00098708
0.000973904
0.000959799
0.000944694
0.000928577
0.00091134
0.000893047
0.000873495
0.000852958
0.000830958
0.000808296
0.000783761
0.000759412
0.000732233
0.000707155
0.00114456
0.00114422
0.00114353
0.00114249
0.00114113
0.00113945
0.00113747
0.00113519
0.00113263
0.00112978
0.00112666
0.00112326
0.00111958
0.00111563
0.0011114
0.00110687
0.00110205
0.00109691
0.00109142
0.00108493
0.0010761
0.00106654
0.00105624
0.00104517
0.00103327
0.00102051
0.00100683
0.000992184
0.000976505
0.000959782
0.000941907
0.000922952
0.000902707
0.000881465
0.000858733
0.000835352
0.000810067
0.000785023
0.000757098
0.00073139
0.00118258
0.00118225
0.00118156
0.00118053
0.00117916
0.00117748
0.00117548
0.00117319
0.0011706
0.00116773
0.00116457
0.00116112
0.0011574
0.00115339
0.00114909
0.0011445
0.00113959
0.00113435
0.00112874
0.00112117
0.00111205
0.00110211
0.0010914
0.0010799
0.00106754
0.00105429
0.00104009
0.00102489
0.00100862
0.000991286
0.000972763
0.000953135
0.00093219
0.000910238
0.00088677
0.00086267
0.000836638
0.000810904
0.000782245
0.000755916
0.00122113
0.00122081
0.00122013
0.0012191
0.00121774
0.00121605
0.00121404
0.00121173
0.00120912
0.00120622
0.00120303
0.00119955
0.00119578
0.00119172
0.00118736
0.00118269
0.0011777
0.00117236
0.00116653
0.00115782
0.00114833
0.00113803
0.00112691
0.00111496
0.00110213
0.00108838
0.00107364
0.00105788
0.00104102
0.00102305
0.00100387
0.000983562
0.00096191
0.000939242
0.000915037
0.000890217
0.000863442
0.000837023
0.000807645
0.000780703
0.0012602
0.0012599
0.00125923
0.0012582
0.00125684
0.00125514
0.00125313
0.0012508
0.00124817
0.00124525
0.00124203
0.00123851
0.0012347
0.00123059
0.00122617
0.00122143
0.00121636
0.00121092
0.00120397
0.00119483
0.00118494
0.00117425
0.00116272
0.00115032
0.001137
0.00112274
0.00110745
0.00109111
0.00107364
0.00105504
0.00103519
0.0010142
0.00099183
0.000968442
0.000943497
0.000917959
0.000890446
0.000863348
0.000833264
0.000805717
0.00129978
0.00129949
0.00129883
0.00129781
0.00129644
0.00129474
0.00129272
0.00129039
0.00128774
0.0012848
0.00128155
0.001278
0.00127415
0.00126999
0.00126552
0.00126072
0.00125556
0.00125001
0.0012416
0.00123212
0.00122184
0.00121075
0.00119879
0.00118593
0.00117212
0.00115733
0.00114149
0.00112456
0.00110647
0.00108722
0.00106669
0.001045
0.00102191
0.000997801
0.000972117
0.00094586
0.000917616
0.000889845
0.000859071
0.000830926
0.00133984
0.00133956
0.00133891
0.0013379
0.00133654
0.00133484
0.00133281
0.00133047
0.00132781
0.00132485
0.00132158
0.001318
0.00131411
0.00130991
0.00130539
0.00130052
0.00129527
0.00128854
0.00127951
0.00126965
0.00125898
0.00124748
0.00123508
0.00122175
0.00120744
0.00119211
0.0011757
0.00115817
0.00113945
0.00111954
0.00109833
0.00107593
0.00105212
0.00102728
0.00100086
0.000973885
0.000944917
0.000916479
0.000885031
0.000856297
0.00138037
0.00138011
0.00137947
0.00137847
0.00137711
0.00137541
0.00137338
0.00137103
0.00136836
0.00136538
0.00136209
0.00135849
0.00135457
0.00135033
0.00134575
0.00134081
0.00133538
0.00132707
0.00131763
0.00130739
0.00129634
0.00128441
0.00127156
0.00125775
0.00124292
0.00122705
0.00121005
0.00119191
0.00117254
0.00115196
0.00113006
0.00110695
0.00108241
0.00105684
0.00102968
0.001002
0.000972314
0.000943215
0.00091111
0.000881793
0.00142134
0.0014211
0.00142047
0.00141948
0.00141813
0.00141643
0.0014144
0.00141205
0.00140937
0.00140638
0.00140307
0.00139944
0.00139549
0.00139121
0.00138658
0.00138157
0.00137468
0.00136575
0.00135594
0.00134532
0.00133386
0.0013215
0.00130818
0.00129387
0.00127852
0.00126209
0.0012445
0.00122573
0.00120571
0.00118445
0.00116184
0.00113802
0.00111275
0.00108645
0.00105855
0.00103016
0.00099977
0.000970018
0.000937273
0.000907381
0.00146274
0.00146251
0.0014619
0.00146091
0.00145957
0.00145788
0.00145585
0.00145349
0.00145081
0.00144781
0.00144448
0.00144084
0.00143686
0.00143254
0.00142785
0.00142216
0.00141391
0.00140458
0.0013944
0.00138339
0.00137151
0.00135871
0.00134491
0.00133009
0.0013142
0.00129719
0.001279
0.0012596
0.00123891
0.00121697
0.00119365
0.0011691
0.00114309
0.00111606
0.00108743
0.00105833
0.00102725