/*--------------------------------*- C++ -*----------------------------------*\
| =========                 |                                                 |
| \\      /  F ield         | OpenFOAM: The Open Source CFD Toolbox           |
|  \\    /   O peration     | Version:  2506                                  |
|   \\  /    A nd           | Website:  www.openfoam.com                      |
|    \\/     M anipulation  |                                                 |
\*---------------------------------------------------------------------------*/
FoamFile
{
    version     2.0;
    format      ascii;
    arch        "LSB;label=32;scalar=64";
    class       volScalarField;
    location    "6000";
    object      omega;
}
// * * * * * * * * * * * * * * * * * * * * * * * * * * * * * * * * * * * * * //

dimensions      [0 0 -1 0 0 0 0];

internalField   nonuniform List<scalar> 
72100
(
3.51397e+06
3.51397e+06
3.51397e+06
3.51397e+06
3.51397e+06
3.51397e+06
3.51397e+06
3.51397e+06
3.51397e+06
3.51397e+06
3.51397e+06
3.51397e+06
3.51397e+06
3.51397e+06
3.51397e+06
3.51397e+06
3.51397e+06
3.51396e+06
3.51396e+06
3.51396e+06
3.51396e+06
3.51396e+06
3.51396e+06
3.51396e+06
3.51396e+06
3.51396e+06
3.51396e+06
3.51396e+06
3.51396e+06
3.51396e+06
3.51395e+06
3.51395e+06
3.51395e+06
3.51395e+06
3.51395e+06
3.51395e+06
3.51395e+06
3.51395e+06
3.51395e+06
3.51395e+06
599814
598905
598887
598873
598855
598833
598808
598781
598752
598721
598688
598654
598618
598581
598543
598502
598461
598418
598374
598328
598281
598233
598183
598133
598081
598029
597976
597922
597868
597814
597760
597706
597655
597602
597556
597504
597470
597410
597404
597293
204337
203752
203714
203680
203637
203586
203528
203464
203394
203319
203240
203156
203068
202975
202878
202777
202672
202562
202448
202330
202207
202079
201948
201812
201671
201527
201379
201226
201071
200912
200751
200588
200425
200261
200101
199941
199794
199639
199521
199343
101371
101007
100959
100914
100856
100785
100703
100612
100511
100402
100285
100161
100029
99889.1
99742.2
99587.7
99425.7
99256.1
99078.6
98893.1
98698.8
98495.8
98284.2
98064
97834.8
97596.4
97348.5
97091.2
96824.4
96548.4
96263.6
95970.4
95670.5
95364.3
95055.2
94743.3
94435.6
94129.6
93841
93535.5
63305.1
63091.1
63048.6
63007.6
62953.4
62884.7
62802.8
62709.1
62604.5
62489.7
62365.1
62231
62087.7
61935.1
61773.2
61601.9
61421.1
61230.5
61029.9
60818.8
60596.5
60362.7
60117.3
59859.8
59589.5
59305.8
59008
58695.4
58367.4
58023.4
57663.1
57285.8
56892.3
56481.9
56057.4
55617.4
55169.3
54710.7
54256.2
53785.9
45173.2
45056.1
45028.7
45002.5
44965
44913.6
44849.4
44773.2
44686
44588.3
44480.6
44363.2
44236.4
44100.2
43954.7
43799.6
43634.9
43460.2
43275.4
43080
42873.6
42655.5
42425.3
42182.5
41925.9
41654.8
41368.3
41065
40743.8
40403.1
40042
39658
39251.3
38818.1
38361
37872.9
37364
36819.9
36268.2
35667
34656.8
34596.5
34585.8
34576.1
34557.3
34526.6
34484.7
34431.8
34368.5
34295.4
34212.8
34121.2
34020.9
33911.8
33794.1
33667.8
33532.8
33388.7
33235.6
33073.3
32902
32720.6
32528.4
32324.9
32109.2
31880.7
31638.3
31380.5
31106.1
30812.9
30499.7
30163.1
29802.5
29412
28993.7
28535.5
28048.7
27506.7
26947.3
26299.2
27751.1
27724
27726.7
27730.9
27728.2
27715.8
27693.7
27661.8
27620.5
27570
27510.9
27443.6
27368.2
27285
27194
27095.4
26989.1
26874.9
26752.8
26623.9
26488.3
26344.7
26192.1
26029.9
25858.3
25676.6
25483.7
25278.2
25059.2
24824.5
24572.6
24300.2
24006.3
23684.3
23335.5
22946
22525.9
22042.8
21536.5
20917.7
22864.6
22856.5
22867.9
22882
22891.7
22894
22888
22873.6
22850.8
22819.9
22781.2
22735.1
22681.8
22621.5
22554.4
22480.5
22400
22312.7
22218.7
22118.8
22013.3
21901.2
21781.9
21654.7
21521
21379.8
21230.2
21071.2
20901.9
20720.5
20525.5
20314
20084.7
19831.5
19554.8
19241.2
18898.7
18494.3
18064.3
17515.8
19230.4
19232.3
19248.4
19268.5
19286.6
19299.6
19306.2
19305.8
19298.3
19283.8
19262.6
19234.9
19200.9
19160.8
19114.7
19062.9
19005.4
18942.2
18873.3
18798.9
18719.2
18634.1
18543
18445.5
18342.7
18234.1
18119.2
17998.1
17869.5
17732.2
17584.8
17424.7
17250.6
17057.2
16844.4
16600.1
16330.1
16004
15651.8
15186.4
16437.2
16443.9
16462
16485
16508.1
16528.1
16543.5
16553.5
16557.7
16556.2
16549.1
16536.4
16518.3
16495
16466.6
16433.3
16395.2
16352.3
16304.8
16252.5
16195.4
16133.8
16067.4
15995.9
15919.4
15838
15751.7
15660.5
15564.5
15462.4
15353.3
15235
15106.1
14962.2
14802.8
14617.5
14410.1
14154.1
13872.8
13488.9
14239.6
14248.4
14266.7
14290.5
14315.7
14339.7
14360.7
14377.8
14390.5
14398.7
14402.3
14401.3
14395.8
14385.9
14371.8
14353.6
14331.3
14305.1
14275.1
14241.1
14203.1
14161.3
14115.7
14066.1
14012.2
13954.4
13892.5
13826.5
13756.6
13682.6
13604.1
13519.2
13426.8
13323.1
13207.4
13071.1
12916.3
12720.5
12500.9
12191.2
12479.3
12488.8
12506.4
12529.4
12554.9
12580.4
12604.3
12625.7
12644
12659
12670.3
12678
12682.1
12682.7
12679.8
12673.5
12663.9
12651.1
12635.2
12616.1
12593.8
12568.3
12539.7
12508.1
12473.2
12435.2
12394.1
12349.6
12301.9
12251
12197.1
12139
12075.9
12004.8
11924.8
11828.7
11717.6
11572.6
11406
11161.6
11048.4
11057.9
11074.2
11095.7
11120
11145.3
11170.1
11193.6
11215.2
11234.4
11251
11264.8
11275.9
11284.3
11289.9
11292.8
11293.2
11290.9
11286.3
11279.1
11269.4
11257.2
11242.6
11225.6
11206.3
11184.5
11160.6
11134.2
11105.5
11074.3
11040.8
11004.6
10965.3
10920.5
10869.6
10806.6
10731.8
10629.4
10508
10320.3
9869.94
9879.07
9893.94
9913.46
9935.99
9960.01
9984.3
10008.3
10031.3
10052.8
10072.5
10090.4
10106.3
10120.2
10132
10141.9
10149.8
10155.8
10159.9
10162.2
10162.6
10161
10157.6
10152.5
10145.8
10137.4
10127.5
10116
10103.1
10088.6
10072.6
10054.8
10035.2
10012.2
9985.3
9949.43
9905.1
9838.14
9755.64
9616.28
8885.63
8894.23
8907.8
8925.59
8946.39
8969.02
8992.46
9016.06
9039.27
9061.64
9082.93
9103.19
9122.12
9139.65
9155.85
9170.67
9184.15
9196.31
9207.22
9216.85
9225.12
9232.03
9237.63
9242.09
9245.49
9247.89
9249.46
9250.24
9250.3
9249.64
9248.35
9246.22
9243.4
9238.64
9231.86
9218.81
9200.09
9163.17
9114.24
9016.02
8052.63
8060.58
8073.02
8089.33
8108.62
8129.97
8152.51
8175.52
8198.55
8221.26
8243.39
8264.85
8285.46
8305.23
8324.24
8342.4
8359.79
8376.44
8392.39
8407.6
8421.99
8435.52
8448.24
8460.32
8471.87
8482.99
8493.85
8504.56
8515.24
8525.98
8536.9
8547.88
8559.15
8569.86
8580.03
8586.38
8589.31
8578.3
8558.19
8496.14
7340.18
7347.45
7358.79
7373.71
7391.54
7411.53
7432.99
7455.27
7477.96
7500.74
7523.33
7545.5
7567.21
7588.42
7609.15
7629.41
7649.39
7669.12
7688.66
7707.99
7727.01
7745.63
7763.93
7782.02
7800.04
7818.13
7836.46
7855.21
7874.53
7894.57
7915.52
7937.38
7960.39
7984.05
8008.45
8031.17
8052.38
8063.64
8068.17
8038.55
6725.06
6731.66
6741.99
6755.62
6772.04
6790.66
6810.92
6832.28
6854.35
6876.84
6899.48
6922.05
6944.49
6966.7
6988.63
7010.35
7031.95
7053.67
7075.64
7097.89
7120.29
7142.75
7165.31
7188.08
7211.19
7234.8
7259.1
7284.29
7310.58
7338.17
7367.31
7398.1
7430.84
7465.28
7501.57
7538.03
7574.68
7604.93
7630.6
7629.51
6189.5
6195.48
6204.87
6217.3
6232.39
6249.68
6268.71
6289.02
6310.27
6332.19
6354.55
6377.14
6399.87
6422.66
6445.44
6468.23
6491.01
6514
6537.49
6561.7
6586.48
6611.73
6637.48
6663.8
6690.84
6718.76
6747.76
6778.06
6809.92
6843.59
6879.35
6917.42
6958.14
7001.47
7047.66
7095.59
7145.23
7191.6
7235.43
7259.21
5719.69
5725.09
5733.62
5744.97
5758.83
5774.83
5792.62
5811.82
5832.13
5853.3
5875.14
5897.45
5920.13
5943.11
5966.32
5989.75
6013.41
6037.34
6061.77
6087.18
6113.54
6140.75
6168.78
6197.73
6227.73
6258.94
6291.58
6325.88
6362.13
6400.62
6441.67
6485.61
6532.79
6583.4
6637.72
6695.14
6755.62
6815.51
6874.83
6919.96
5304.74
5309.63
5317.39
5327.75
5340.46
5355.26
5371.84
5389.9
5409.2
5429.5
5450.64
5472.45
5494.83
5517.7
5540.99
5564.71
5588.85
5613.43
5638.53
5664.6
5691.93
5720.41
5750.01
5780.82
5812.97
5846.62
5882
5919.36
5959
6001.25
6046.48
6095.06
6147.42
6203.89
6264.84
6330.02
6399.47
6470.61
6543.05
6606.35
4936
4940.44
4947.5
4956.97
4968.64
4982.3
4997.72
5014.66
5032.9
5052.26
5072.59
5093.74
5115.61
5138.14
5161.26
5184.97
5209.27
5234.17
5259.72
5286.12
5313.96
5343.18
5373.76
5405.81
5439.43
5474.82
5512.19
5551.81
5594
5639.11
5687.54
5739.74
5796.18
5857.29
5923.55
5995.01
6071.81
6152.23
6235.67
6314.28
4606.5
4610.53
4616.98
4625.64
4636.35
4648.96
4663.28
4679.13
4696.32
4714.7
4734.14
4754.51
4775.73
4797.74
4820.49
4843.96
4868.16
4893.1
4918.82
4945.37
4973.39
5002.94
5034.04
5066.81
5101.36
5137.89
5176.62
5217.83
5261.84
5309.05
5359.88
5414.8
5474.36
5539.08
5609.51
5685.96
5768.68
5856.65
5949.23
6040.62
4310.57
4314.24
4320.13
4328.07
4337.92
4349.56
4362.85
4377.65
4393.8
4411.19
4429.69
4449.22
4469.69
4491.06
4513.27
4536.32
4560.21
4584.96
4610.61
4637.17
4665.1
4694.66
4725.93
4759.01
4794.04
4831.22
4870.78
4913.01
4958.25
5006.9
5059.41
5116.31
5178.16
5245.59
5319.2
5399.52
5486.91
5580.93
5680.99
5782.95
4043.55
4046.91
4052.31
4059.59
4068.66
4079.41
4091.74
4105.54
4120.69
4137.09
4154.65
4173.29
4192.94
4213.57
4235.13
4257.62
4281.04
4305.42
4330.8
4357.19
4384.86
4414.21
4445.35
4478.42
4513.57
4551
4590.95
4633.72
4679.67
4729.21
4782.82
4841.04
4904.48
4973.82
5049.76
5132.97
5223.94
5322.69
5428.76
5539.33
3801.6
3804.69
3809.64
3816.34
3824.7
3834.64
3846.08
3858.94
3873.13
3888.57
3905.18
3922.92
3941.71
3961.53
3982.35
4004.18
4027.01
4050.88
4075.82
4101.87
4129.14
4158.11
4188.92
4221.72
4256.7
4294.05
4334.03
4376.95
4423.18
4473.14
4527.32
4586.3
4650.72
4721.31
4798.82
4884.07
4977.67
5079.99
5190.76
5308.22
3581.52
3584.35
3588.91
3595.08
3602.8
3612
3622.62
3634.6
3647.88
3662.39
3678.08
3694.91
3712.82
3731.8
3751.83
3772.91
3795.06
3818.31
3842.69
3868.25
3895.02
3923.47
3953.78
3986.12
4020.69
4057.7
4097.41
4140.16
4186.3
4236.28
4290.61
4349.87
4414.73
4485.98
4564.42
4650.97
4746.34
4851.23
4965.54
5088.39
3380.59
3383.2
3387.41
3393.11
3400.25
3408.78
3418.64
3429.81
3442.23
3455.85
3470.65
3486.57
3503.6
3521.72
3540.92
3561.21
3582.61
3605.15
3628.88
3653.84
3680.01
3707.84
3737.52
3769.25
3803.22
3839.68
3878.9
3921.19
3966.95
4016.62
4070.72
4129.85
4194.71
4266.12
4344.91
4432.11
4528.52
4635.09
4751.91
4878.8
3196.55
3198.97
3202.86
3208.14
3214.75
3222.66
3231.84
3242.25
3253.86
3266.64
3280.57
3295.63
3311.79
3329.04
3347.4
3366.86
3387.46
3409.23
3432.23
3456.5
3482.01
3509.13
3538.08
3569.08
3602.32
3638.07
3676.59
3718.22
3763.35
3812.43
3865.99
3924.65
3989.12
4060.24
4138.9
4226.18
4322.98
4430.46
4548.87
4678.63
3027.46
3029.71
3033.32
3038.21
3044.35
3051.7
3060.24
3069.95
3080.81
3092.8
3105.91
3120.12
3135.42
3151.82
3169.33
3187.95
3207.72
3228.69
3250.9
3274.41
3299.21
3325.55
3353.7
3383.87
3416.28
3451.18
3488.86
3529.65
3573.95
3622.22
3674.99
3732.89
3796.64
3867.11
3945.21
4032.08
4128.7
4236.39
4355.6
4487.18
2871.67
2873.75
2877.11
2881.66
2887.36
2894.21
2902.16
2911.23
2921.39
2932.63
2944.96
2958.36
2972.84
2988.4
3005.06
3022.84
3041.78
3061.91
3083.3
3106
3130.04
3155.55
3182.85
3212.13
3243.63
3277.59
3314.31
3354.13
3397.44
3444.71
3496.48
3553.37
3616.13
3685.62
3762.8
3848.84
3944.8
4052.1
4171.38
4303.88
2727.74
2729.68
2732.81
2737.04
2742.36
2748.74
2756.16
2764.63
2774.14
2784.69
2796.28
2808.91
2822.59
2837.34
2853.18
2870.12
2888.21
2907.5
2928.04
2949.91
2973.13
2997.8
3024.2
3052.55
3083.07
3116.03
3151.7
3190.45
3232.65
3278.78
3329.37
3385.07
3446.6
3514.86
3590.81
3675.65
3770.51
3876.91
3995.64
4128.24
2594.44
2596.26
2599.17
2603.12
2608.09
2614.04
2620.98
2628.9
2637.81
2647.71
2658.6
2670.5
2683.43
2697.39
2712.42
2728.54
2745.8
2764.24
2783.93
2804.95
2827.32
2851.11
2876.6
2903.99
2933.5
2965.4
2999.97
3037.56
3078.56
3123.44
3172.72
3227.06
3287.18
3353.98
3428.44
3511.79
3605.17
3710.22
3827.84
3959.84
2470.71
2472.41
2475.13
2478.83
2483.46
2489.03
2495.52
2502.94
2511.29
2520.59
2530.83
2542.05
2554.25
2567.46
2581.71
2597.03
2613.47
2631.07
2649.91
2670.06
2691.57
2714.48
2739.03
2765.44
2793.92
2824.73
2858.16
2894.54
2934.27
2977.81
3025.69
3078.54
3137.1
3202.27
3275.03
3356.61
3448.21
3551.52
3667.56
3798.34
2355.61
2357.2
2359.75
2363.21
2367.55
2372.77
2378.85
2385.8
2393.64
2402.37
2412
2422.57
2434.09
2446.58
2460.08
2474.63
2490.27
2507.05
2525.05
2544.33
2564.97
2586.99
2610.61
2636.02
2663.46
2693.16
2725.42
2760.57
2798.98
2841.12
2887.52
2938.8
2995.69
3059.08
3129.95
3209.56
3299.12
3400.35
3514.4
3643.41
2248.33
2249.82
2252.21
2255.45
2259.52
2264.41
2270.12
2276.64
2284
2292.21
2301.28
2311.24
2322.11
2333.92
2346.7
2360.5
2375.37
2391.35
2408.52
2426.95
2446.72
2467.84
2490.53
2514.96
2541.35
2569.94
2601.02
2634.9
2671.98
2712.68
2757.54
2807.18
2862.31
2923.81
2992.67
3070.13
3157.43
3256.31
3368.02
3494.79
2148.13
2149.53
2151.77
2154.82
2158.64
2163.23
2168.59
2174.73
2181.65
2189.37
2197.91
2207.3
2217.56
2228.72
2240.83
2253.91
2268.03
2283.24
2299.6
2317.19
2336.09
2356.34
2378.1
2401.55
2426.9
2454.38
2484.28
2516.9
2552.61
2591.86
2635.16
2683.11
2736.41
2795.95
2862.69
2937.87
3022.74
3119.04
3228.1
3352.25
2054.39
2055.71
2057.82
2060.68
2064.27
2068.59
2073.63
2079.4
2085.92
2093.19
2101.24
2110.09
2119.78
2130.33
2141.79
2154.2
2167.6
2182.05
2197.63
2214.41
2232.46
2251.84
2272.69
2295.17
2319.49
2345.88
2374.6
2405.96
2440.32
2478.11
2519.82
2566.05
2617.5
2675.02
2739.57
2812.36
2894.66
2988.2
3094.37
3215.55
1966.54
1967.78
1969.77
1972.46
1975.85
1979.92
1984.66
1990.1
1996.23
2003.09
2010.68
2019.03
2028.19
2038.17
2049.01
2060.77
2073.48
2087.22
2102.04
2118.02
2135.25
2153.78
2173.73
2195.26
2218.57
2243.88
2271.44
2301.55
2334.57
2370.9
2411.03
2455.54
2505.11
2560.58
2622.88
2693.22
2772.84
2863.48
2966.56
3084.51
1884.09
1885.26
1887.13
1889.67
1892.86
1896.7
1901.17
1906.3
1912.08
1918.55
1925.71
1933.61
1942.25
1951.69
1961.96
1973.1
1985.16
1998.21
2012.3
2027.52
2043.94
2061.64
2080.72
2101.33
2123.65
2147.89
2174.31
2203.2
2234.88
2269.77
2308.33
2351.13
2398.82
2452.22
2512.25
2580.09
2656.97
2744.6
2844.44
2958.92
1806.58
1807.69
1809.45
1811.85
1814.86
1818.48
1822.71
1827.55
1833.01
1839.11
1845.88
1853.34
1861.51
1870.44
1880.17
1890.72
1902.17
1914.56
1927.95
1942.43
1958.08
1974.97
1993.2
2012.9
2034.26
2057.47
2082.78
2110.46
2140.84
2174.31
2211.32
2252.41
2298.24
2349.58
2407.33
2472.65
2546.74
2631.29
2727.78
2838.62
1733.62
1734.67
1736.34
1738.6
1741.45
1744.87
1748.86
1753.43
1758.59
1764.36
1770.76
1777.81
1785.55
1794
1803.21
1813.22
1824.07
1835.84
1848.57
1862.34
1877.24
1893.35
1910.75
1929.58
1950
1972.21
1996.44
2022.95
2052.05
2084.13
2119.61
2159.03
2203.01
2252.31
2307.79
2370.58
2441.87
2523.3
2616.36
2723.42
1664.85
1665.84
1667.42
1669.56
1672.26
1675.49
1679.27
1683.59
1688.47
1693.93
1699.98
1706.66
1713.98
1721.98
1730.71
1740.2
1750.5
1761.67
1773.77
1786.86
1801.04
1816.4
1833.01
1850.99
1870.5
1891.74
1914.91
1940.28
1968.15
1998.87
2032.87
2070.65
2112.81
2160.09
2213.33
2273.61
2342.1
2420.39
2509.96
2613.17
1599.95
1600.89
1602.39
1604.41
1606.96
1610.02
1613.6
1617.69
1622.31
1627.48
1633.21
1639.53
1646.47
1654.06
1662.33
1671.33
1681.1
1691.71
1703.2
1715.65
1729.15
1743.78
1759.62
1776.78
1795.43
1815.72
1837.88
1862.15
1888.81
1918.21
1950.76
1986.93
2027.32
2072.62
2123.65
2181.45
2247.16
2322.32
2408.4
2507.7
1538.63
1539.52
1540.94
1542.86
1545.27
1548.17
1551.56
1555.44
1559.82
1564.71
1570.15
1576.14
1582.71
1589.91
1597.75
1606.29
1615.57
1625.64
1636.56
1648.4
1661.24
1675.18
1690.28
1706.66
1724.46
1743.85
1765.03
1788.23
1813.73
1841.85
1872.99
1907.61
1946.26
1989.63
2038.5
2093.86
2156.83
2228.88
2311.47
2406.84
1480.63
1481.47
1482.81
1484.63
1486.92
1489.67
1492.88
1496.56
1500.72
1505.36
1510.51
1516.19
1522.43
1529.26
1536.7
1544.81
1553.62
1563.19
1573.56
1584.82
1597.04
1610.32
1624.72
1640.34
1657.33
1675.85
1696.08
1718.25
1742.63
1769.51
1799.29
1832.4
1869.37
1910.86
1957.61
2010.59
2070.86
2139.85
2218.99
2310.43
1425.7
1426.5
1427.78
1429.5
1431.67
1434.28
1437.33
1440.82
1444.76
1449.17
1454.06
1459.46
1465.38
1471.86
1478.92
1486.62
1494.99
1504.08
1513.95
1524.65
1536.28
1548.94
1562.66
1577.56
1593.78
1611.46
1630.78
1651.96
1675.25
1700.95
1729.41
1761.05
1796.4
1836.06
1880.76
1931.41
1989.05
2055.03
2130.76
2218.32
1373.64
1374.4
1375.61
1377.24
1379.3
1381.78
1384.68
1387.99
1391.74
1395.93
1400.57
1405.69
1411.32
1417.47
1424.19
1431.5
1439.46
1448.1
1457.48
1467.66
1478.74
1490.79
1503.87
1518.09
1533.56
1550.44
1568.89
1589.12
1611.36
1635.91
1663.11
1693.34
1727.11
1765.01
1807.71
1856.11
1911.18
1974.23
2046.62
2130.34
1324.23
1324.96
1326.11
1327.66
1329.62
1331.98
1334.73
1337.88
1341.44
1345.42
1349.83
1354.7
1360.05
1365.9
1372.28
1379.24
1386.8
1395.02
1403.94
1413.63
1424.2
1435.68
1448.14
1461.7
1476.46
1492.57
1510.18
1529.5
1550.75
1574.2
1600.17
1629.05
1661.3
1697.49
1738.27
1784.48
1837.06
1897.25
1966.38
2046.33
1277.32
1278.01
1279.1
1280.58
1282.44
1284.68
1287.3
1290.29
1293.68
1297.46
1301.66
1306.3
1311.38
1316.95
1323.02
1329.63
1336.83
1344.64
1353.13
1362.36
1372.44
1383.38
1395.26
1408.19
1422.28
1437.65
1454.47
1472.91
1493.2
1515.59
1540.39
1567.97
1598.76
1633.31
1672.23
1716.32
1766.49
1823.92
1889.86
1966.14
1232.73
1233.39
1234.43
1235.83
1237.6
1239.73
1242.22
1245.07
1248.29
1251.9
1255.89
1260.3
1265.14
1270.44
1276.22
1282.51
1289.36
1296.8
1304.88
1313.67
1323.29
1333.72
1345.05
1357.39
1370.83
1385.5
1401.55
1419.16
1438.53
1459.91
1483.59
1509.92
1539.31
1572.27
1609.41
1651.46
1699.31
1754.05
1816.91
1889.62
1190.31
1190.94
1191.93
1193.27
1194.95
1196.98
1199.35
1202.06
1205.13
1208.56
1212.36
1216.56
1221.17
1226.22
1231.72
1237.71
1244.23
1251.32
1259.02
1267.41
1276.58
1286.53
1297.34
1309.11
1321.93
1335.94
1351.26
1368.08
1386.57
1406.98
1429.58
1454.71
1482.76
1514.21
1549.63
1589.72
1635.32
1687.48
1747.37
1816.61
1149.93
1150.53
1151.47
1152.74
1154.35
1156.28
1158.53
1161.12
1164.04
1167.31
1170.94
1174.94
1179.33
1184.13
1189.38
1195.09
1201.3
1208.05
1215.4
1223.42
1232.16
1241.65
1251.97
1263.2
1275.44
1288.81
1303.44
1319.49
1337.15
1356.63
1378.21
1402.19
1428.95
1458.95
1492.72
1530.94
1574.38
1624.06
1681.07
1746.96
1111.46
1112.03
1112.93
1114.14
1115.67
1117.5
1119.65
1122.12
1124.9
1128.02
1131.48
1135.29
1139.48
1144.06
1149.06
1154.5
1160.42
1166.86
1173.88
1181.55
1189.89
1198.95
1208.79
1219.52
1231.2
1243.97
1257.94
1273.26
1290.12
1308.72
1329.32
1352.2
1377.73
1406.34
1438.54
1474.95
1516.33
1563.61
1617.86
1680.53
1074.78
1075.32
1076.18
1077.33
1078.79
1080.54
1082.59
1084.94
1087.6
1090.57
1093.87
1097.5
1101.5
1105.87
1110.64
1115.83
1121.48
1127.63
1134.34
1141.67
1149.63
1158.28
1167.68
1177.92
1189.08
1201.27
1214.61
1229.25
1245.35
1263.1
1282.76
1304.6
1328.96
1356.23
1386.92
1421.61
1461.01
1506.01
1557.6
1617.17
1039.79
1040.31
1041.12
1042.22
1043.61
1045.28
1047.23
1049.48
1052.01
1054.85
1057.99
1061.47
1065.28
1069.45
1074
1078.96
1084.35
1090.23
1096.67
1103.67
1111.27
1119.53
1128.51
1138.29
1148.95
1160.6
1173.34
1187.32
1202.69
1219.65
1238.41
1259.25
1282.48
1308.49
1337.74
1370.79
1408.29
1451.09
1500.15
1556.74
1006.38
1006.88
1007.66
1008.71
1010.03
1011.62
1013.49
1015.63
1018.04
1020.75
1023.76
1027.07
1030.71
1034.69
1039.04
1043.78
1048.94
1054.57
1060.73
1067.42
1074.69
1082.58
1091.16
1100.51
1110.7
1121.82
1134
1147.35
1162.03
1178.22
1196.14
1216.03
1238.19
1262.99
1290.86
1322.34
1358.04
1398.74
1445.37
1499.11
974.472
974.946
975.689
976.692
977.954
979.475
981.254
983.296
985.607
988.192
991.063
994.23
997.707
1001.51
1005.67
1010.2
1015.14
1020.55
1026.44
1032.84
1039.78
1047.33
1055.54
1064.47
1074.21
1084.84
1096.47
1109.23
1123.26
1138.72
1155.83
1174.81
1195.95
1219.6
1246.17
1276.14
1310.11
1348.82
1393.12
1444.15
943.976
944.429
945.139
946.097
947.302
948.753
950.452
952.403
954.61
957.08
959.824
962.85
966.175
969.813
973.787
978.125
982.873
988.06
993.696
999.815
1006.46
1013.68
1021.53
1030.07
1039.38
1049.55
1060.67
1072.86
1086.26
1101.04
1117.37
1135.49
1155.66
1178.21
1203.53
1232.07
1264.4
1301.21
1343.3
1391.72
914.813
915.248
915.927
916.841
917.992
919.378
921.002
922.866
924.975
927.337
929.96
932.854
936.034
939.516
943.323
947.489
952.052
957.019
962.413
968.27
974.628
981.535
989.044
997.216
1006.12
1015.85
1026.48
1038.14
1050.95
1065.06
1080.66
1097.96
1117.21
1138.72
1162.84
1190.03
1220.8
1255.79
1295.77
1341.72
886.914
887.331
887.979
888.854
889.954
891.279
892.831
894.613
896.63
898.888
901.397
904.167
907.211
910.548
914.201
918.21
922.588
927.345
932.511
938.119
944.207
950.819
958.006
965.827
974.35
983.652
993.824
1004.97
1017.22
1030.7
1045.61
1062.12
1080.5
1101.01
1124.01
1149.9
1179.18
1212.45
1250.42
1294.02
860.21
860.61
861.231
862.067
863.119
864.386
865.87
867.575
869.505
871.666
874.068
876.721
879.638
882.841
886.358
890.211
894.408
898.966
903.916
909.287
915.118
921.451
928.333
935.821
943.979
952.881
962.613
973.276
984.985
997.879
1012.12
1027.89
1045.43
1065
1086.92
1111.58
1139.45
1171.08
1207.15
1248.51
834.639
835.024
835.62
836.42
837.427
838.639
840.059
841.691
843.538
845.608
847.909
850.452
853.254
856.336
859.724
863.422
867.444
871.814
876.557
881.705
887.292
893.359
899.951
907.123
914.934
923.457
932.771
942.974
954.174
966.502
980.111
995.181
1011.92
1030.59
1051.5
1074.99
1101.51
1131.58
1165.84
1205.08
810.144
810.516
811.088
811.856
812.819
813.98
815.339
816.902
818.671
820.655
822.863
825.305
828.001
830.973
834.229
837.777
841.635
845.824
850.372
855.307
860.662
866.476
872.793
879.664
887.146
895.308
904.225
913.99
924.706
936.497
949.507
963.905
979.894
997.711
1017.64
1040.02
1065.27
1093.87
1126.41
1163.63
786.674
787.035
787.585
788.32
789.243
790.355
791.658
793.155
794.852
796.756
798.877
801.229
803.83
806.69
809.815
813.219
816.919
820.938
825.299
830.031
835.165
840.739
846.794
853.379
860.548
868.367
876.907
886.256
896.512
907.791
920.232
933.992
949.264
966.27
985.278
1006.61
1030.64
1057.84
1088.75
1124.07
764.177
764.532
765.06
765.765
766.649
767.715
768.965
770.402
772.031
773.862
775.905
778.175
780.681
783.428
786.427
789.693
793.243
797.097
801.281
805.819
810.744
816.089
821.895
828.207
835.079
842.571
850.753
859.705
869.524
880.318
892.216
905.371
919.96
936.196
954.329
974.658
997.542
1023.41
1052.78
1086.28
742.597
742.954
743.468
744.145
744.993
746.016
747.216
748.597
750.165
751.93
753.903
756.091
758.498
761.135
764.012
767.145
770.551
774.25
778.264
782.618
787.343
792.47
798.039
804.092
810.68
817.861
825.702
834.278
843.68
854.012
865.396
877.975
891.916
907.42
924.722
944.101
965.895
990.5
1018.4
1050.2
721.883
722.242
722.754
723.412
724.231
725.215
726.369
727.7
729.212
730.915
732.815
734.917
737.227
739.757
742.518
745.524
748.793
752.343
756.196
760.375
764.908
769.829
775.171
780.978
787.297
794.183
801.698
809.917
818.923
828.816
839.71
851.741
865.067
879.875
896.388
914.866
935.625
959.036
985.554
1015.73
701.996
702.35
702.857
703.508
704.308
705.261
706.377
707.661
709.12
710.758
712.583
714.6
716.817
719.245
721.895
724.782
727.92
731.328
735.027
739.039
743.391
748.114
753.242
758.814
764.877
771.481
778.688
786.566
795.196
804.671
815.1
826.61
839.352
853.499
869.263
886.886
906.664
928.943
954.148
982.791
682.901
683.242
683.738
684.379
685.163
686.094
687.176
688.417
689.824
691.4
693.153
695.09
697.22
699.551
702.097
704.869
707.884
711.157
714.71
718.563
722.743
727.279
732.202
737.552
743.37
749.707
756.62
764.175
772.447
781.524
791.511
802.527
814.713
828.234
843.285
860.097
878.946
900.153
924.115
951.308
664.565
664.89
665.368
665.991
666.756
667.663
668.715
669.916
671.274
672.793
674.48
676.343
678.39
680.632
683.078
685.743
688.64
691.786
695.2
698.903
702.919
707.277
712.006
717.143
722.73
728.813
735.447
742.694
750.626
759.326
768.893
779.438
791.097
804.022
818.399
834.441
852.408
872.6
895.385
921.207
646.954
647.264
647.722
648.321
649.061
649.94
650.959
652.122
653.433
654.899
656.524
658.318
660.288
662.445
664.799
667.361
670.148
673.173
676.456
680.016
683.877
688.065
692.61
697.546
702.913
708.755
715.123
722.077
729.686
738.028
747.195
757.294
768.451
780.811
794.547
809.86
826.992
846.221
867.894
892.42
630.039
630.334
630.77
631.343
632.054
632.901
633.885
635.007
636.273
637.686
639.254
640.982
642.88
644.956
647.222
649.689
652.37
655.281
658.439
661.864
665.577
669.605
673.974
678.719
683.876
689.489
695.605
702.281
709.583
717.584
726.372
736.047
746.728
758.552
771.68
786.301
802.641
820.96
841.579
864.88
613.789
614.07
614.485
615.032
615.711
616.523
617.469
618.55
619.769
621.131
622.641
624.307
626.135
628.135
630.317
632.692
635.273
638.075
641.115
644.411
647.984
651.858
656.061
660.624
665.582
670.977
676.853
683.265
690.274
697.952
706.379
715.652
725.881
737.195
749.747
763.712
779.302
796.758
816.382
838.526
598.173
598.441
598.837
599.359
600.007
600.784
601.69
602.728
603.9
605.21
606.664
608.268
610.028
611.954
614.055
616.343
618.828
621.526
624.453
627.625
631.064
634.793
638.837
643.227
647.995
653.182
658.83
664.991
671.722
679.091
687.176
696.066
705.866
716.697
728.702
742.045
756.924
773.565
792.246
813.297
583.165
583.421
583.798
584.296
584.916
585.658
586.525
587.52
588.644
589.903
591.301
592.843
594.537
596.391
598.414
600.616
603.009
605.607
608.425
611.479
614.79
618.379
622.271
626.495
631.083
636.071
641.501
647.423
653.89
660.966
668.725
677.251
686.643
697.015
708.501
721.254
735.46
751.328
769.119
789.136
568.739
568.983
569.343
569.818
570.41
571.12
571.949
572.901
573.979
575.187
576.529
578.011
579.64
581.423
583.37
585.489
587.792
590.293
593.006
595.947
599.134
602.589
606.336
610.401
614.815
619.614
624.836
630.529
636.743
643.54
650.989
659.169
668.174
678.11
689.102
701.296
714.864
730.001
746.949
765.991
554.873
555.105
555.447
555.901
556.466
557.144
557.938
558.85
559.882
561.04
562.328
563.751
565.316
567.03
568.902
570.94
573.157
575.564
578.175
581.005
584.074
587.399
591.006
594.918
599.166
603.783
608.806
614.28
620.253
626.783
633.936
641.786
650.422
659.943
670.468
682.131
695.093
709.538
725.69
743.81
541.545
541.763
542.089
542.521
543.061
543.71
544.469
545.342
546.331
547.441
548.676
550.042
551.545
553.191
554.99
556.95
559.082
561.397
563.909
566.633
569.586
572.787
576.258
580.024
584.111
588.553
593.385
598.649
604.391
610.666
617.536
625.071
633.355
642.481
652.561
663.719
676.108
689.897
705.295
722.544
528.731
528.938
529.248
529.66
530.175
530.795
531.522
532.357
533.305
534.369
535.553
536.863
538.306
539.887
541.615
543.499
545.548
547.774
550.191
552.811
555.652
558.733
562.072
565.696
569.629
573.902
578.55
583.612
589.132
595.163
601.761
608.995
616.943
625.693
635.348
646.027
657.871
671.038
685.722
702.148
516.415
516.611
516.905
517.298
517.79
518.382
519.077
519.876
520.784
521.803
522.939
524.196
525.58
527.098
528.757
530.567
532.536
534.677
537
539.52
542.253
545.216
548.429
551.914
555.698
559.809
564.279
569.146
574.453
580.248
586.587
593.533
601.158
609.548
618.799
629.021
640.347
652.924
666.931
682.579
504.582
504.766
505.045
505.418
505.887
506.452
507.116
507.881
508.75
509.727
510.815
512.021
513.349
514.805
516.399
518.137
520.029
522.086
524.319
526.742
529.369
532.219
535.309
538.661
542.3
546.254
550.552
555.232
560.333
565.902
571.99
578.659
585.976
594.021
602.886
612.673
623.505
635.52
648.886
663.797
493.212
493.385
493.649
494.004
494.451
494.99
495.625
496.356
497.188
498.123
499.166
500.321
501.595
502.993
504.522
506.191
508.008
509.984
512.13
514.459
516.985
519.724
522.695
525.919
529.418
533.219
537.352
541.85
546.753
552.103
557.951
564.352
571.374
579.089
587.583
596.953
607.314
618.796
631.552
645.765
482.288
482.452
482.703
483.04
483.466
483.981
484.586
485.285
486.081
486.976
487.975
489.082
490.303
491.644
493.111
494.713
496.458
498.356
500.417
502.655
505.082
507.715
510.571
513.669
517.033
520.687
524.659
528.983
533.693
538.833
544.448
550.593
557.33
564.727
572.866
581.838
591.75
602.722
614.898
628.447
471.796
471.952
472.19
472.511
472.917
473.407
473.986
474.653
475.414
476.27
477.227
478.287
479.457
480.743
482.151
483.687
485.362
487.184
489.164
491.313
493.645
496.175
498.92
501.897
505.13
508.642
512.459
516.613
521.138
526.074
531.465
537.363
543.825
550.918
558.716
567.305
576.787
587.272
598.896
611.814
461.722
461.87
462.096
462.402
462.788
463.256
463.807
464.445
465.172
465.991
466.906
467.921
469.042
470.274
471.624
473.098
474.705
476.454
478.355
480.419
482.659
485.089
487.726
490.587
493.693
497.067
500.734
504.724
509.071
513.81
518.985
524.644
530.842
537.641
545.111
553.334
562.403
572.423
583.519
595.837
452.052
452.191
452.406
452.696
453.064
453.509
454.035
454.644
455.338
456.121
456.996
457.968
459.041
460.222
461.516
462.929
464.471
466.149
467.974
469.955
472.106
474.441
476.973
479.722
482.706
485.947
489.469
493.302
497.475
502.025
506.991
512.42
518.363
524.879
532.034
539.904
548.578
558.152
568.744
580.489
442.769
442.899
443.102
443.377
443.726
444.15
444.652
445.232
445.895
446.643
447.48
448.41
449.438
450.569
451.809
453.164
454.643
456.253
458.005
459.907
461.972
464.214
466.647
469.287
472.153
475.266
478.649
482.329
486.335
490.702
495.468
500.675
506.373
512.616
519.468
526.999
535.292
544.439
554.548
565.746
433.852
433.973
434.164
434.424
434.756
435.159
435.637
436.191
436.824
437.539
438.339
439.229
440.214
441.297
442.486
443.786
445.204
446.749
448.43
450.257
452.24
454.393
456.73
459.265
462.018
465.008
468.257
471.79
475.636
479.827
484.399
489.393
494.854
500.835
507.395
514.601
522.529
531.266
540.913
551.588
425.277
425.389
425.568
425.815
426.13
426.514
426.969
427.498
428.103
428.786
429.553
430.405
431.348
432.387
433.527
434.774
436.135
437.619
439.233
440.987
442.892
444.96
447.204
449.64
452.285
455.156
458.277
461.669
465.362
469.383
473.769
478.557
483.791
489.52
495.8
502.693
510.271
518.615
527.819
537.993
417.013
417.119
417.29
417.525
417.824
418.191
418.626
419.131
419.71
420.365
421.099
421.917
422.821
423.818
424.912
426.11
427.417
428.842
430.393
432.078
433.909
435.897
438.054
440.394
442.935
445.694
448.692
451.95
455.494
459.354
463.562
468.153
473.169
478.656
484.667
491.259
498.501
506.468
515.248
524.943
409.037
409.141
409.304
409.529
409.816