/*--------------------------------*- C++ -*----------------------------------*\
| =========                 |                                                 |
| \\      /  F ield         | OpenFOAM: The Open Source CFD Toolbox           |
|  \\    /   O peration     | Version:  2506                                  |
|   \\  /    A nd           | Website:  www.openfoam.com                      |
|    \\/     M anipulation  |                                                 |
\*---------------------------------------------------------------------------*/
FoamFile
{
    version     2.0;
    format      ascii;
    arch        "LSB;label=32;scalar=64";
    class       volScalarField;
    location    "6000";
    object      p;
}
// * * * * * * * * * * * * * * * * * * * * * * * * * * * * * * * * * * * * * //

dimensions      [0 2 -2 0 0 0 0];

internalField   nonuniform List<scalar> 
72100
(
16.9046
16.9082
16.9664
17.0399
17.1437
17.2735
17.4304
17.6142
17.8246
18.0618
18.3255
18.6159
18.933
19.2771
19.6482
20.0467
20.4728
20.927
21.4097
21.9212
22.462
23.0327
23.6334
24.2649
24.9275
25.6218
26.3478
27.1065
27.897
28.7209
29.5747
30.4631
31.3753
32.3254
33.2824
34.2904
35.26
36.327
37.2369
38.393
16.9047
16.9082
16.9665
17.0399
17.1437
17.2735
17.4305
17.6142
17.8247
18.0618
18.3256
18.616
18.9331
19.2772
19.6483
20.0468
20.4729
20.9271
21.4098
21.9214
22.4622
23.0328
23.6336
24.2651
24.9277
25.622
26.348
27.1068
27.8972
28.7211
29.575
30.4634
31.3756
32.3258
33.2828
34.2908
35.2604
36.3274
37.2373
38.3934
16.9047
16.9082
16.9665
17.04
17.1438
17.2736
17.4306
17.6143
17.8248
18.0619
18.3257
18.6161
18.9332
19.2773
19.6484
20.0469
20.4731
20.9273
21.41
21.9215
22.4623
23.033
23.6338
24.2653
24.9279
25.6222
26.3483
27.107
27.8975
28.7214
29.5753
30.4637
31.376
32.3262
33.2832
34.2912
35.2609
36.3279
37.2378
38.3939
16.9047
16.9082
16.9665
17.04
17.1438
17.2736
17.4306
17.6144
17.8249
18.062
18.3258
18.6162
18.9333
19.2774
19.6485
20.047
20.4732
20.9274
21.4101
21.9217
22.4625
23.0332
23.634
24.2655
24.9281
25.6224
26.3485
27.1073
27.8978
28.7217
29.5756
30.4641
31.3763
32.3266
33.2836
34.2917
35.2613
36.3284
37.2383
38.3944
16.9046
16.9083
16.9666
17.0401
17.1439
17.2737
17.4307
17.6145
17.825
18.0621
18.3259
18.6163
18.9335
19.2775
19.6487
20.0472
20.4734
20.9276
21.4103
21.9219
22.4627
23.0334
23.6342
24.2658
24.9284
25.6227
26.3488
27.1076
27.8981
28.7221
29.576
30.4645
31.3768
32.3271
33.2841
34.2922
35.2619
36.329
37.2389
38.3951
16.9045
16.9083
16.9666
17.0401
17.1439
17.2738
17.4308
17.6146
17.8251
18.0623
18.326
18.6165
18.9337
19.2777
19.6489
20.0474
20.4736
20.9278
21.4106
21.9222
22.463
23.0337
23.6345
24.2661
24.9288
25.6231
26.3493
27.1081
27.8986
28.7226
29.5766
30.4651
31.3774
32.3277
33.2848
34.293
35.2627
36.3298
37.2397
38.396
16.9045
16.9084
16.9667
17.0402
17.1441
17.2739
17.431
17.6148
17.8253
18.0625
18.3263
18.6167
18.9339
19.278
19.6492
20.0477
20.4739
20.9282
21.4109
21.9226
22.4635
23.0342
23.635
24.2666
24.9293
25.6237
26.3499
27.1087
27.8993
28.7234
29.5774
30.4659
31.3783
32.3287
33.2858
34.294
35.2638
36.331
37.2409
38.3972
16.9044
16.9084
16.9667
17.0403
17.1442
17.2741
17.4311
17.615
17.8255
18.0627
18.3265
18.617
18.9342
19.2783
19.6495
20.0481
20.4744
20.9286
21.4114
21.9231
22.464
23.0347
23.6356
24.2673
24.93
25.6244
26.3507
27.1096
27.9002
28.7243
29.5784
30.467
31.3795
32.3299
33.2871
34.2954
35.2652
36.3326
37.2425
38.3989
16.9043
16.9084
16.9668
17.0404
17.1443
17.2742
17.4313
17.6152
17.8258
18.063
18.3268
18.6173
18.9346
19.2787
19.65
20.0486
20.4748
20.9292
21.412
21.9236
22.4646
23.0354
23.6363
24.268
24.9308
25.6253
26.3516
27.1105
27.9013
28.7254
29.5796
30.4683
31.3808
32.3314
33.2887
34.2971
35.267
36.3345
37.2445
38.401
16.9042
16.9084
16.9668
17.0405
17.1444
17.2744
17.4315
17.6154
17.826
18.0633
18.3272
18.6177
18.935
19.2792
19.6504
20.049
20.4754
20.9297
21.4126
21.9243
22.4653
23.0361
23.6371
24.2689
24.9317
25.6262
26.3526
27.1116
27.9024
28.7267
29.5809
30.4697
31.3823
32.333
33.2904
34.299
35.2691
36.3367
37.2469
38.4035
16.904
16.9084
16.9668
17.0405
17.1445
17.2746
17.4317
17.6157
17.8263
18.0636
18.3275
18.6181
18.9354
19.2796
19.6509
20.0496
20.4759
20.9303
21.4132
21.9249
22.466
23.0369
23.6379
24.2697
24.9326
25.6272
26.3536
27.1127
27.9036
28.7279
29.5823
30.4712
31.3839
32.3347
33.2923
34.301
35.2712
36.3391
37.2494
38.4062
16.9038
16.9084
16.9668
17.0405
17.1446
17.2747
17.4319
17.6159
17.8266
18.0639
18.3279
18.6185
18.9358
19.28
19.6514
20.0501
20.4765
20.9309
21.4138
21.9256
22.4667
23.0377
23.6388
24.2706
24.9335
25.6282
26.3547
27.1138
27.9048
28.7292
29.5836
30.4726
31.3855
32.3364
33.2941
34.303
35.2734
36.3414
37.252
38.4089
16.9035
16.9083
16.9667
17.0405
17.1447
17.2748
17.4321
17.6161
17.8268
18.0642
18.3282
18.6188
18.9362
19.2805
19.6519
20.0506
20.477
20.9315
21.4145
21.9263
22.4675
23.0385
23.6396
24.2715
24.9345
25.6292
26.3557
27.115
27.906
28.7305
29.585
30.4741
31.387
32.3381
33.2959
34.3049
35.2755
36.3437
37.2546
38.4116
16.9033
16.9082
16.9666
17.0405
17.1447
17.2749
17.4322
17.6163
17.8271
18.0645
18.3285
18.6192
18.9366
19.2809
19.6524
20.0511
20.4776
20.9321
21.4151
21.927
22.4682
23.0392
23.6404
24.2724
24.9354
25.6302
26.3568
27.116
27.9071
28.7317
29.5863
30.4754
31.3885
32.3396
33.2976
34.3068
35.2775
36.3459
37.2571
38.4141
16.9029
16.9081
16.9665
17.0405
17.1447
17.2749
17.4323
17.6164
17.8273
18.0647
18.3288
18.6195
18.937
19.2814
19.6528
20.0516
20.4782
20.9327
21.4158
21.9277
22.4689
23.04
23.6412
24.2732
24.9363
25.6311
26.3577
27.1171
27.9082
28.7328
29.5874
30.4767
31.3898
32.3411
33.2991
34.3084
35.2794
36.3479
37.2594
38.4165
16.9026
16.9079
16.9664
17.0404
17.1447
17.275
17.4324
17.6166
17.8275
18.065
18.3291
18.6199
18.9374
19.2818
19.6533
20.0521
20.4787
20.9333
21.4163
21.9283
22.4696
23.0407
23.642
24.274
24.9371
25.632
26.3586
27.118
27.9092
28.7338
29.5885
30.4778
31.391
32.3423
33.3005
34.3099
35.281
36.3496
37.2614
38.4185
16.9022
16.9077
16.9662
17.0403
17.1446
17.275
17.4325
17.6167
17.8276
18.0652
18.3293
18.6201
18.9377
19.2821
19.6537
20.0526
20.4791
20.9338
21.4169
21.9289
22.4702
23.0414
23.6427
24.2747
24.9379
25.6328
26.3595
27.1189
27.91
28.7347
29.5894
30.4788
31.392
32.3433
33.3015
34.311
35.2822
36.3509
37.2631
38.4201
16.9018
16.9075
16.966
17.0401
17.1445
17.275
17.4325
17.6168
17.8277
18.0653
18.3295
18.6204
18.938
19.2825
19.654
20.053
20.4796
20.9342
21.4174
21.9294
22.4708
23.042
23.6433
24.2754
24.9386
25.6335
26.3602
27.1196
27.9108
28.7355
29.5902
30.4795
31.3928
32.3441
33.3023
34.3117
35.2831
36.3517
37.2643
38.4211
16.9013
16.9072
16.9657
17.0399
17.1444
17.2749
17.4325
17.6168
17.8278
18.0655
18.3297
18.6206
18.9382
19.2827
19.6544
20.0533
20.48
20.9347
21.4178
21.9299
22.4713
23.0425
23.6438
24.2759
24.9391
25.634
26.3608
27.1202
27.9114
28.7361
29.5908
30.4801
31.3933
32.3446
33.3028
34.3121
35.2836
36.3521
37.2651
38.4215
16.9007
16.9069
16.9654
17.0397
17.1442
17.2748
17.4324
17.6168
17.8279
18.0655
18.3298
18.6208
18.9384
19.283
19.6546
20.0536
20.4803
20.935
21.4182
21.9303
22.4717
23.0429
23.6443
24.2764
24.9396
25.6345
26.3612
27.1206
27.9118
28.7365
29.5912
30.4804
31.3936
32.3448
33.303
34.3122
35.2837
36.352
37.2654
38.4213
16.9002
16.9065
16.9651
17.0394
17.144
17.2746
17.4323
17.6167
17.8279
18.0656
18.3299
18.6209
18.9386
19.2832
19.6548
20.0539
20.4806
20.9353
21.4185
21.9306
22.472
23.0433
23.6447
24.2768
24.94
25.6349
26.3616
27.1209
27.9121
28.7367
29.5913
30.4805
31.3936
32.3447
33.3028
34.3119
35.2834
36.3515
37.2652
38.4205
16.8995
16.9061
16.9647
17.0391
17.1438
17.2744
17.4322
17.6166
17.8278
18.0656
18.33
18.621
18.9387
19.2833
19.655
20.0541
20.4808
20.9355
21.4187
21.9308
22.4723
23.0436
23.6449
24.277
24.9402
25.6351
26.3617
27.1211
27.9122
28.7367
29.5912
30.4803
31.3933
32.3442
33.3023
34.3111
35.2827
36.3504
37.2645
38.4191
16.8989
16.9057
16.9642
17.0387
17.1435
17.2742
17.432
17.6165
17.8277
18.0655
18.3299
18.621
18.9387
19.2834
19.6551
20.0542
20.4809
20.9357
21.4189
21.931
22.4724
23.0437
23.6451
24.2772
24.9403
25.6351
26.3617
27.121
27.912
28.7365
29.5909
30.4798
31.3927
32.3434
33.3013
34.3099
35.2814
36.3487
37.2633
38.417
16.8982
16.9052
16.9638
17.0383
17.1431
17.2739
17.4317
17.6163
17.8275
18.0654
18.3299
18.6209
18.9387
19.2834
19.6552
20.0542
20.481
20.9358
21.419
21.9311
22.4725
23.0438
23.6451
24.2771
24.9402
25.635
26.3616
27.1208
27.9117
28.736
29.5903
30.479
31.3917
32.3422
33.3
34.3082
35.2797
36.3465
37.2614
38.4141
16.8974
16.9046
16.9632
17.0378
17.1427
17.2735
17.4314
17.616
17.8273
18.0652
18.3297
18.6208
18.9387
19.2834
19.6551
20.0542
20.481
20.9358
21.419
21.931
22.4724
23.0437
23.645
24.277
24.94
25.6347
26.3612
27.1203
27.9111
28.7352
29.5894
30.4779
31.3904
32.3406
33.2982
34.306
35.2774
36.3436
37.2588
38.4105
16.8965
16.904
16.9626
17.0373
17.1422
17.2731
17.4311
17.6157
17.8271
18.065
18.3295
18.6207
18.9385
19.2832
19.655
20.0541
20.4809
20.9357
21.4189
21.9309
22.4723
23.0435
23.6448
24.2767
24.9397
25.6343
26.3606
27.1196
27.9102
28.7342
29.5882
30.4765
31.3887
32.3386
33.2959
34.3033
35.2745
36.34
37.2555
38.406
16.8957
16.9033
16.9619
17.0367
17.1417
17.2726
17.4306
17.6154
17.8267
18.0647
18.3292
18.6204
18.9383
19.283
19.6548
20.0539
20.4807
20.9355
21.4187
21.9306
22.472
23.0431
23.6444
24.2762
24.9391
25.6336
26.3599
27.1187
27.9091
28.7329
29.5866
30.4747
31.3866
32.3361
33.2931
34.3
35.2709
36.3357
37.2515
38.4006
16.8947
16.9026
16.9612
17.036
17.1411
17.2721
17.4302
17.6149
17.8263
18.0643
18.3289
18.6201
18.938
19.2827
19.6545
20.0537
20.4804
20.9352
21.4183
21.9303
22.4716
23.0427
23.6438
24.2756
24.9384
25.6328
26.3589
27.1175
27.9078
28.7313
29.5847
30.4725
31.3841
32.3332
33.2897
34.2961
35.2667
36.3307
37.2467
38.3943
16.8937
16.9018
16.9604
17.0353
17.1404
17.2715
17.4296
17.6144
17.8259
18.0639
18.3285
18.6197
18.9376
19.2824
19.6542
20.0533
20.48
20.9348
21.4179
21.9298
22.471
23.042
23.6431
24.2748
24.9374
25.6317
26.3576
27.116
27.9061
28.7294
29.5825
30.4698
31.3811
32.3297
33.2858
34.2915
35.2618
36.3248
37.2411
38.3869
16.8926
16.901
16.9596
17.0345
17.1397
17.2708
17.429
17.6138
17.8253
18.0634
18.328
18.6192
18.9371
19.2819
19.6537
20.0528
20.4795
20.9343
21.4173
21.9292
22.4703
23.0412
23.6422
24.2738
24.9363
25.6304
26.3561
27.1143
27.9041
28.7271
29.5799
30.4668
31.3776
32.3257
33.2813
34.2862
35.2562
36.3181
37.2345
38.3785
16.8914
16.9
16.9586
17.0337
17.1389
17.2701
17.4283
17.6132
17.8247
18.0628
18.3274
18.6186
18.9366
19.2813
19.6531
20.0522
20.4789
20.9336
21.4166
21.9284
22.4695
23.0403
23.6411
24.2725
24.9349
25.6288
26.3543
27.1123
27.9018
28.7244
29.5768
30.4633
31.3736
32.3211
33.2762
34.2803
35.2498
36.3105
37.227
38.369
16.8902
16.899
16.9576
17.0327
17.138
17.2692
17.4275
17.6124
17.824
18.0621
18.3267
18.618
18.9359
19.2806
19.6524
20.0515
20.4782
20.9328
21.4158
21.9275
22.4684
23.0391
23.6399
24.2711
24.9333
25.627
26.3523
27.11
27.8991
28.7214
29.5734
30.4593
31.3691
32.3159
33.2704
34.2736
35.2425
36.3019
37.2185
38.3583
16.8888
16.8979
16.9565
17.0317
17.1371
17.2683
17.4266
17.6116
17.8231
18.0613
18.3259
18.6172
18.9351
19.2799
19.6516
20.0507
20.4773
20.9319
21.4148
21.9264
22.4672
23.0378
23.6384
24.2695
24.9315
25.6249
26.3499
27.1073
27.8961
28.7179
29.5694
30.4549
31.3641
32.3101
33.2639
34.2661
35.2344
36.2924
37.209
38.3464
16.8874
16.8967
16.9553
17.0306
17.136
17.2673
17.4257
17.6106
17.8222
18.0604
18.3251
18.6163
18.9342
19.2789
19.6507
20.0497
20.4763
20.9308
21.4136
21.9252
22.4659
23.0363
23.6367
24.2676
24.9293
25.6225
26.3472
27.1043
27.8927
28.7141
29.565
30.4499
31.3584
32.3036
33.2567
34.2577
35.2254
36.2818
37.1984
38.3331
16.8859
16.8954
16.954
17.0294
17.1349
17.2662
17.4246
17.6096
17.8212
18.0594
18.3241
18.6153
18.9332
19.2779
19.6496
20.0486
20.4751
20.9296
21.4123
21.9237
22.4643
23.0345
23.6347
24.2654
24.9269
25.6199
26.3442
27.1009
27.8889
28.7097
29.5602
30.4443
31.3521
32.2964
33.2487
34.2485
35.2155
36.2701
37.1866
38.3185
16.8843
16.8941
16.9526
17.0281
17.1336
17.265
17.4234
17.6085
17.8201
18.0583
18.323
18.6142
18.9321
19.2768
19.6484
20.0473
20.4738
20.9282
21.4108
21.9221
22.4625
23.0326
23.6326
24.263
24.9242
25.6168
26.3409
27.0971
27.8846
28.7049
29.5547
30.4381
31.3452
32.2885
33.2399
34.2384
35.2045
36.2573
37.1737
38.3025
16.8826
16.8926
16.9512
17.0267
17.1323
17.2637
17.4222
17.6073
17.8189
18.0571
18.3217
18.613
18.9308
19.2754
19.6471
20.0459
20.4723
20.9266
21.4091
21.9203
22.4605
23.0304
23.6301
24.2603
24.9212
25.6135
26.3371
27.0929
27.8799
28.6996
29.5487
30.4313
31.3376
32.2799
33.2302
34.2274
35.1925
36.2433
37.1594
38.285
16.8808
16.891
16.9496
17.0252
17.1308
17.2623
17.4208
17.6059
17.8176
18.0557
18.3204
18.6116
18.9294
19.274
19.6456
20.0443
20.4706
20.9248
21.4072
21.9182
22.4583
23.0279
23.6274
24.2573
24.9179
25.6098
26.333
27.0883
27.8747
28.6938
29.5422
30.4239
31.3292
32.2704
33.2197
34.2153
35.1794
36.228
37.1438
38.2659
16.8789
16.8893
16.9478
17.0235
17.1292
17.2608
17.4193
17.6044
17.8161
18.0543
18.3189
18.6101
18.9279
19.2724
19.6439
20.0426
20.4688
20.9228
21.4051
21.916
22.4558
23.0252
23.6244
24.254
24.9142
25.6057
26.3284
27.0832
27.869
28.6874
29.535
30.4158
31.3201
32.2601
33.2082
34.2021
35.1652
36.2114
37.1269
38.2452
16.8769
16.8875
16.946
17.0218
17.1275
17.2591
17.4177
17.6028
17.8145
18.0526
18.3173
18.6084
18.9261
19.2706
19.642
20.0406
20.4667
20.9206
21.4027
21.9134
22.4531
23.0222
23.6211
24.2503
24.9102
25.6012
26.3235
27.0776
27.8628
28.6804
29.5272
30.407
31.3102
32.2488
33.1957
34.1879
35.1497
36.1934
37.1084
38.2228
16.8747
16.8855
16.944
17.0199
17.1257
17.2573
17.4159
17.601
17.8127
18.0509
18.3155
18.6066
18.9243
19.2687
19.64
20.0385
20.4645
20.9182
21.4002
21.9107
22.4501
23.0189
23.6174
24.2463
24.9058
25.5963
26.318
27.0715
27.856
28.6728
29.5186
30.3974
31.2995
32.2367
33.1822
34.1725
35.133
36.1741
37.0885
38.1986
16.8724
16.8834
16.9419
17.0179
17.1237
17.2554
17.414
17.5992
17.8108
18.049
18.3135
18.6046
18.9222
19.2665
19.6378
20.0361
20.462
20.9156
21.3973
21.9076
22.4468
23.0153
23.6134
24.2419
24.9009
25.591
26.3121
27.0649
27.8486
28.6645
29.5094
30.387
31.2879
32.2235
33.1676
34.1559
35.1149
36.1532
37.0669
38.1726
16.87
16.8812
16.9397
17.0157
17.1216
17.2533
17.4119
17.5971
17.8088
18.0469
18.3114
18.6024
18.9199
19.2642
19.6353
20.0336
20.4592
20.9127
21.3942
21.9043
22.4432
23.0113
23.6091
24.2371
24.8957
25.5851
26.3056
27.0577
27.8406
28.6556
29.4994
30.3758
31.2754
32.2094
33.1519
34.138
35.0955
36.1307
37.0437
38.1447
16.8674
16.8788
16.9373
17.0134
17.1193
17.2511
17.4097
17.5949
17.8065
18.0446
18.3091
18.6
18.9175
19.2616
19.6326
20.0308
20.4563
20.9095
21.3908
21.9006
22.4392
23.007
23.6044
24.2319
24.8899
25.5788
26.2986
27.05
27.832
28.6459
29.4886
30.3637
31.2618
32.1942
33.135
34.1188
35.0747
36.1066
37.0188
38.1148
16.8647
16.8763
16.9347
17.011
17.1169
17.2487
17.4073
17.5925
17.8041
18.0422
18.3066
18.5975
18.9148
19.2589
19.6297
20.0277
20.453
20.9061
21.3872
21.8967
22.4349
23.0023
23.5992
24.2263
24.8837
25.572
26.291
27.0416
27.8226
28.6355
29.477
30.3506
31.2473
32.1778
33.1169
34.0983
35.0523
36.0809
36.992
38.0828
16.8618
16.8736
16.932
17.0083
17.1142
17.2461
17.4048
17.5899
17.8015
18.0395
18.3039
18.5947
18.912
19.2559
19.6266
20.0244
20.4495
20.9023
21.3832
21.8924
22.4303
22.9972
23.5936
24.2202
24.877
25.5646
26.2829
27.0325
27.8126
28.6243
29.4645
30.3367
31.2317
32.1603
33.0975
34.0762
35.0284
36.0533
36.9633
38.0486
16.8587
16.8707
16.9291
17.0055
17.1114
17.2434
17.402
17.5872
17.7987
18.0367
18.301
18.5917
18.9089
19.2526
19.6232
20.0208
20.4457
20.8983
21.3789
21.8877
22.4253
22.9917
23.5876
24.2136
24.8698
25.5566
26.2741
27.0227
27.8018
28.6122
29.4511
30.3217
31.2151
32.1415
33.0767
34.0527
35.0028
36.024
36.9327
38.0123
16.8555
16.8676
16.926
17.0025
17.1085
17.2404
17.3991
17.5842
17.7957
18.0336
18.2979
18.5885
18.9055
19.2491
19.6195
20.0169
20.4416
20.8939
21.3742
21.8827
22.4198
22.9857
23.5811
24.2065
24.862
25.548
26.2646
27.0123
27.7901
28.5993
29.4368
30.3056
31.1972
32.1214
33.0545
34.0276
34.9755
35.9927
36.9
37.9736
16.8521
16.8643
16.9227
16.9993
17.1053
17.2372
17.3959
17.581
17.7925
18.0303
18.2945
18.585
18.9019
19.2454
19.6156
20.0128
20.4372
20.8892
21.3691
21.8773
22.4139
22.9793
23.5741
24.1988
24.8536
25.5388
26.2544
27.001
27.7777
28.5855
29.4214
30.2884
31.1781
32.1
33.0308
34.0009
34.9464
35.9594
36.8652
37.9325
16.8485
16.8609
16.9192
16.9959
17.1019
17.2339
17.3925
17.5776
17.7891
18.0268
18.2909
18.5812
18.898
19.2413
19.6113
20.0083
20.4324
20.8841
21.3637
21.8715
22.4076
22.9724
23.5666
24.1906
24.8445
25.5289
26.2435
26.9889
27.7643
28.5706
29.4049
30.2701
31.1577
32.0772
33.0056
33.9724
34.9154
35.924
36.8281
37.8888
16.8447
16.8572
16.9155
16.9922
17.0982
17.2303
17.3889
17.574
17.7853
18.023
18.287
18.5772
18.8938
19.2369
19.6067
20.0034
20.4273
20.8787
21.3579
21.8652
22.4007
22.9649
23.5585
24.1817
24.8349
25.5182
26.2318
26.976
27.75
28.5548
29.3874
30.2505
31.136
32.0528
32.9787
33.9421
34.8825
35.8864
36.7888
37.8426
16.8406
16.8532
16.9115
16.9883
17.0944
17.2264
17.385
17.57
17.7814
18.019
18.2828
18.5729
18.8893
19.2322
19.6018
19.9982
20.4218
20.8728
21.3516
21.8584
22.3934
22.9569
23.5498
24.1722
24.8245
25.5068
26.2193
26.9622
27.7348
28.5379
29.3686
30.2296
31.1129
32.027
32.9502
33.91
34.8476
35.8467
36.747
37.7937
16.8363
16.8491
16.9073
16.9842
17.0903
17.2223
17.3809
17.5659
17.7771
18.0146
18.2783
18.5682
18.8845
19.2272
19.5965
19.9926
20.4159
20.8665
21.3449
21.8511
22.3854
22.9483
23.5404
24.1621
24.8134
25.4947
26.2059
26.9475
27.7185
28.5199
29.3487
30.2074
31.0883
31.9995
32.9199
33.876
34.8105
35.8045
36.7027
37.7421
16.8318
16.8447
16.9028
16.9798
17.0859
17.2179
17.3765
17.5614
17.7726
18.01
18.2735
18.5633
18.8793
19.2218
19.5908
19.9867
20.4095
20.8598
21.3376
21.8433
22.3769
22.9391
23.5305
24.1512
24.8015
25.4816
26.1916
26.9317
27.7012
28.5007
29.3274
30.1838
31.0622
31.9703
32.8877
33.8399
34.7713
35.76
36.6557
37.6875
16.8271
16.84
16.8981
16.9752
17.0812
17.2133
17.3718
17.5567
17.7677
18.005
18.2684
18.558
18.8738
19.216
19.5848
19.9803
20.4027
20.8525
21.3299
21.8349
22.3678
22.9293
23.5198
24.1396
24.7888
25.4677
26.1763
26.9149
27.6827
28.4802
29.3048
30.1588
31.0344
31.9394
32.8537
33.8017
34.7297
35.7129
36.6061
37.6299
16.822
16.835
16.8931
16.9702
17.0762
17.2083
17.3668
17.5516
17.7626
17.9997
18.2629
18.5523
18.8679
19.2098
19.5783
19.9734
20.3955
20.8448
21.3216
21.8259
22.3581
22.9188
23.5084
24.1272
24.7752
25.4529
26.1601
26.8971
27.663
28.4585
29.2808
30.1321
31.005
31.9066
32.8176
33.7613
34.6858
35.6633
36.5536
37.5693
16.8167
16.8297
16.8877
16.965
17.071
17.203
17.3615
17.5462
17.7571
17.994
18.2571
18.5463
18.8616
19.2032
19.5713
19.9661
20.3877
20.8365
21.3126
21.8162
22.3477
22.9076
23.4962
24.1139
24.7608
25.4371
26.1428
26.8781
27.6421
28.4354
29.2554
30.1039
30.9738
31.872
32.7794
33.7186
34.6393
35.6109
36.4982
37.5054
16.8111
16.8241
16.8821
16.9594
17.0654
17.1974
17.3558
17.5404
17.7512
17.988
18.2509
18.5398
18.8549
19.1962
19.5639
19.9583
20.3794
20.8277
21.303
21.8059
22.3366
22.8956
23.4832
24.0998
24.7454
25.4203
26.1244
26.8578
27.6198
28.4109
29.2283
30.074
30.9408
31.8353
32.7391
33.6735
34.5903
35.5556
36.4397
37.4382
16.8052
16.8182
16.8761
16.9535
17.0594
17.1914
17.3498
17.5343
17.7449
17.9816
18.2442
18.5329
18.8477
19.1887
19.556
19.9499
20.3706
20.8182
21.2928
21.7949
22.3247
22.8828
23.4693
24.0847
24.729
25.4024
26.1048
26.8364
27.5962
28.3849
29.1997
30.0423
30.9059
31.7965
32.6964
33.626
34.5386
35.4975
36.3781
37.3676
16.799
16.8119
16.8697
16.9472
17.0531
17.1851
17.3434
17.5278
17.7383
17.9747
18.2372
18.5256
18.84
19.1807
19.5476
19.941
20.3611
20.8079
21.2818
21.7831
22.3121
22.8691
23.4546
24.0687
24.7116
25.3834
26.084
26.8136
27.5712
28.3573
29.1694
30.0088
30.8689
31.7555
32.6514
33.5758
34.4841
35.4363
36.3132
37.2935
16.7923
16.8052
16.863
16.9406
17.0464
17.1784
17.3365
17.5208
17.7312
17.9674
18.2296
18.5178
18.8319
19.1721
19.5386
19.9315
20.3509
20.797
21.2702
21.7706
22.2987
22.8546
23.4389
24.0517
24.693
25.3632
26.0619
26.7894
27.5447
28.3281
29.1372
29.9733
30.8299
31.7123
32.6039
33.523
34.4267
35.3719
36.2448
37.2156
16.7853
16.7982
16.8559
16.9335
17.0393
17.1712
17.3293
17.5135
17.7236
17.9597
18.2216
18.5094
18.8232
19.163
19.5291
19.9214
20.3401
20.7854
21.2577
21.7573
22.2843
22.8392
23.4222
24.0336
24.6734
25.3417
26.0385
26.7637
27.5166
28.2973
29.1033
29.9359
30.7887
31.6667
32.5539
33.4674
34.3663
35.3043
36.1729
37.134
16.7779
16.7907
16.8484
16.9261
17.0318
17.1636
17.3216
17.5056
17.7156
17.9514
18.2131
18.5006
18.814
19.1534
19.5189
19.9105
20.3284
20.773
21.2445
21.7431
22.2691
22.8228
23.4045
24.0143
24.6525
25.319
26.0137
26.7366
27.4868
28.2646
29.0674
29.8963
30.7452
31.6186
32.5012
33.4089
34.3027
35.2333
36.0973
37.0484
16.7702
16.7828
16.8404
16.9181
17.0238
17.1556
17.3135
17.4973
17.7071
17.9427
18.204
18.4912
18.8042
19.1431
19.5079
19.8988
20.3161
20.7599
21.2305
21.7281
22.2529
22.8054
23.3856
23.9939
24.6303
25.2949
25.9874
26.7078
27.4553
28.23
29.0295
29.8545
30.6993
31.5679
32.4457
33.3474
34.2358
35.1588
36.0179
36.9587
16.7621
16.7745
16.832
16.9098
17.0153
17.1471
17.3048
17.4885
17.6981
17.9334
18.1944
18.4812
18.7937
19.1321
19.4962
19.8865
20.3029
20.7459
21.2155
21.7121
22.2357
22.7868
23.3656
23.9723
24.6068
25.2693
25.9595
26.6774
27.422
28.1935
28.9894
29.8105
30.651
31.5146
32.3873
33.2827
34.1656
35.0806
35.9345
36.8648
16.7535
16.7656
16.8231
16.9009
17.0064
17.138
17.2956
17.4792
17.6885
17.9235
18.1842
18.4706
18.7826
19.1203
19.4838
19.8733
20.289
20.731
21.1996
21.695
22.2175
22.7672
23.3444
23.9493
24.5819
25.2422
25.93
26.6452
27.3869
28.155
28.9472
29.7641
30.6001
31.4584
32.3258
33.2148
34.0918
34.9986
35.8471
36.7666
16.7444
16.7563
16.8136
16.8915
16.9969
17.1284
17.2859
17.4692
17.6783
17.913
18.1733
18.4592
18.7707
19.1077
19.4706
19.8593
20.2741
20.7152
21.1827
21.677
22.1981
22.7463
23.3219
23.925
24.5555
25.2136
25.8988
26.6112
27.3497
28.1143
28.9027
29.7152
30.5465
31.3994
32.2612
33.1435
34.0144
34.9128
35.7553
36.6638
16.7347
16.7464
16.8037
16.8816
16.9868
17.1183
17.2756
17.4587
17.6675
17.9019
18.1618
18.4471
18.758
19.0944
19.4565
19.8444
20.2583
20.6984
21.1648
21.6578
22.1776
22.7242
23.2981
23.8992
24.5276
25.1833
25.8659
26.5752
27.3105
28.0714
28.8557
29.6637
30.49
31.3374
32.1934
33.0687
33.9332
34.8228
35.6592
36.5564
16.7246
16.7361
16.7932
16.8711
16.9762
17.1075
17.2647
17.4476
17.656
17.89
18.1494
18.4342
18.7445
19.0802
19.4415
19.8286
20.2416
20.6806
21.1458
21.6375
22.1558
22.7008
23.2729
23.872
24.4981
25.1512
25.831
26.5373
27.2691
28.0262
28.8062
29.6094
30.4307
31.2722
32.1222
32.9903
33.848
34.7287
35.5585
36.4442
16.7138
16.7251
16.7821
16.86
16.965
17.0961
17.2531
17.4357
17.6438
17.8774
18.1363
18.4205
18.7301
19.0652
19.4257
19.8119
20.2238
20.6617
21.1257
21.616
22.1327
22.676
23.2461
23.8431
24.4669
25.1174
25.7942
26.4973
27.2255
27.9785
28.7542
29.5524
30.3683
31.2037
32.0474
32.908
33.7588
34.6302
35.4531
36.3269
16.7023
16.7135
16.7704
16.8483
16.9531
17.0841
17.2408
17.4231
17.6308
17.8639
18.1223
18.406
18.7149
19.0492
19.4089
19.7941
20.205
20.6417
21.1044
21.5932
22.1082
22.6498
23.2179
23.8126
24.4339
25.0816
25.7554
26.455
27.1794
27.9283
28.6993
29.4924
30.3028
31.1318
31.969
32.8219
33.6653
34.5272
35.3427
36.2046
16.6901
16.7012
16.7579
16.8359
16.9405
17.0713
17.2277
17.4097
17.617
17.8497
18.1075
18.3906
18.6988
19.0323
19.391
19.7753
20.185
20.6205
21.0818
21.569
22.0824
22.622
23.188
23.7804
24.399
25.0438
25.7144
26.4105
27.131
27.8754
28.6417
29.4294
30.2339
31.0564
31.8868
32.7316
33.5674
34.4195
35.2273
36.0769
16.6773
16.6882
16.7448
16.8227
16.9272
17.0578
17.2139
17.3955
17.6025
17.8346
18.0919
18.3742
18.6817
19.0143
19.3722
19.7553
20.1639
20.598
21.0578
21.5434
22.055
22.5926
23.1564
23.7463
24.3622
25.004
25.6712
26.3635
27.0799
27.8198
28.581
29.3631
30.1617
30.9773
31.8006
32.6372
33.465
34.307
35.1067
35.9437
16.6637
16.6745
16.7309
16.8088
16.9131
17.0435
17.1993
17.3805
17.587
17.8186
18.0753
18.3569
18.6636
18.9954
19.3522
19.7342
20.1415
20.5743
21.0325
21.5164
22.0261
22.5616
23.123
23.7103
24.3234
24.962
25.6257
26.3141
27.0262
27.7613
28.5173
29.2936
30.0858
30.8944
31.7103
32.5383
33.3578
34.1895
34.9806
35.8048
16.6492
16.66
16.7162
16.7941
16.8981
17.0283
17.1838
17.3647
17.5707
17.8017
18.0577
18.3387
18.6445
18.9753
19.331
19.7119
20.1179
20.5491
21.0058
21.4878
21.9955
22.5288
23.0877
23.6723
24.2824
24.9177
25.5777
26.2621
26.9697
27.6998
28.4504
29.2206
30.0063
30.8075
31.6157
32.4349
33.2458
34.0668
34.8489
35.66
16.634
16.6447
16.7007
16.7785
16.8824
17.0122
17.1675
17.3479
17.5534
17.7839
18.0392
18.3193
18.6243
18.954
19.3087
19.6883
20.0929
20.5226
20.9775
21.4577
21.9632
22.4942
23.0506
23.6323
24.2392
24.871
25.5272
26.2073
26.9102
27.6351
28.3801
29.144
29.9229
30.7165
31.5167
32.3268
33.1287
33.9388
34.7115
35.5092
16.6179
16.6286
16.6843
16.7621
16.8657
16.9953
17.1501
17.3301
17.5351
17.7649
18.0196
18.2989
18.6029
18.9316
19.285
19.6633
20.0664
20.4945
20.9476
21.4258
21.9291
22.4576
23.0113
23.5901
24.1937
24.8219
25.474
26.1497
26.8477
27.5673
28.3063
29.0636
29.8355
30.6212
31.4132
32.2138
33.0064
33.8052
34.568
35.3521
16.6009
16.6116
16.667
16.7447
16.8481
16.9774
17.1318
17.3114
17.5158
17.745
17.9988
18.2772
18.5803
18.9079
19.2601
19.6369
20.0385
20.4649
20.9161
21.3921
21.8932
22.4191
22.97
23.5456
24.1458
24.7701
25.4181
26.0891
26.782
27.496
28.2288
28.9794
29.7439
30.5215
31.3049
32.0958
32.8786
33.6659
34.4184
35.1885
16.583
16.5936
16.6488
16.7264
16.8295
16.9584
17.1125
17.2915
17.4953
17.7238
17.9768
18.2544
18.5563
18.8828
19.2337
19.6091
20.009
20.4336
20.8828
21.3566
21.8552
22.3785
22.9264
23.4987
24.0953
24.7157
25.3593
26.0254
26.7131
27.4212
28.1476
28.8911
29.6481
30.4172
31.1916
31.9725
32.7452
33.5206
34.2624
35.0183
16.564
16.5746
16.6295
16.707
16.8098
16.9385
17.0921
17.2706
17.4738
17.7015
17.9537
18.2302
18.5311
18.8562
19.2058
19.5796
19.9779
20.4005
20.8476
21.3192
21.8152
22.3357
22.8805
23.4494
24.0422
24.6584
25.2974
25.9586
26.6407
27.3427
28.0625
28.7987
29.5477
30.3081
31.0733
31.8438
32.6061
33.3692
34.0998
34.8411
16.544
16.5546
16.6092
16.6866
16.7891
16.9174
17.0705
17.2484
17.4509
17.6779
17.9291
18.2047
18.5044
18.8282
19.1763
19.5485
19.945
20.3656
20.8105
21.2797
21.773
22.2905
22.8321
23.3974
23.9863
24.5981
25.2324
25.8883
26.5647
27.2604
27.9733
28.7019
29.4427
30.1941
30.9497
31.7095
32.4609
33.2115
33.9304
34.6568
16.5229
16.5335
16.5878
16.6651
16.7672
16.8951
17.0477
17.225
17.4268
17.6529
17.9033
18.1777
18.4762
18.7987
19.1452
19.5157
19.9103
20.3288
20.7714
21.238
21.7286
22.243
22.7811
23.3428
23.9275
24.5348
25.1641
25.8146
26.485
27.1741
27.8798
28.6006
29.3329
30.0749
30.8206
31.5694
32.3095
33.0473
33.7539
34.4652
16.5005
16.5112
16.5652
16.6423
16.7441
16.8715
17.0237
17.2004
17.4014
17.6266
17.8759
18.1492
18.4464
18.7674
19.1123
19.4811
19.8736
20.29
20.7302
21.1941
21.6818
22.1929
22.7275
23.2852
23.8657
24.4683
25.0924
25.7372
26.4014
27.0836
27.7819
28.4945
29.218
29.9504
30.6858
31.4233
32.1517
32.8763
33.5703
34.2661
16.477
16.4877
16.5414
16.6183
16.7197
16.8467
16.9983
17.1743
17.3745
17.5988
17.8471
18.1191
18.4149
18.7345
19.0777
19.4445
19.835
20.2491
20.6867
21.1479
21.6324
22.1402
22.6711
23.2247
23.8007
24.3984
25.0171
25.656
26.3137
26.9889
27.6795
28.3836
29.098
29.8204
30.5452
31.2709
31.9873
32.6983
33.3792
34.0591
16.4521
16.4629
16.5162
16.593
16.694
16.8205
16.9715
17.1468
17.3462
17.5695
17.8166
18.0874
18.3818
18.6997
19.0411
19.406
19.7943
20.2059
20.6409
21.0991
21.5805
22.0848
22.6118
23.1611
23.7324
24.325
24.9381
25.5708
26.2218
26.8897
27.5723
28.2677
28.9726
29.6846
30.3984
31.1122
31.8161
32.5131
33.1804
33.8441
16.4259
16.4368
16.4897
16.5663
16.6669
16.7929
16.9432
17.1177
17.3162
17.5385
17.7844
18.0539
18.3467
18.663
19.0025
19.3653
19.7513
20.1605
20.5927
21.0478
21.5258
22.0264
22.5493
23.0943
23.6607
24.2479
24.8552
25.4816
26.1256
26.7858
27.4601
28.1464
28.8416
29.543
30.2455
30.9468
31.6379
32.3206
32.9737
33.6209
16.3983
16.4093
16.4618
16.5381
16.6383
16.7637
16.9134
17.0871
17.2846
17.5058
17.7505
18.0185
18.3098
18.6243
18.9619
19.3225
19.7061
20.1125
20.5418
20.9938
21.4682
21.965
22.4837
23.024
23.5853
24.1671
24.7683
25.388
26.0247
26.677
27.3428
28.0198
28.7048
29.3952
30.086
30.7746
31.4523
32.1203
32.7589
33.3891
16.3691
16.3802
16.4323
16.5084
16.6081
16.7329
16.8819
17.0548
17.2513
17.4713
17.7147
17.9812
18.2709
18.5835
18.919
19.2773
19.6584
20.0621
20.4883
20.9369
21.4077
21.9004
22.4147
22.9502
23.5063
24.0822
24.6771
25.2899
25.9192
26.5633
27.2201
27.8874
28.562
29.2411
29.9198
30.5952
31.2593
31.9122
32.5357
33.1486
16.3383
16.3496
16.4013
16.4771
16.5763
16.7005
16.8487
17.0207
17.2162
17.435
17.6769
17.9419
18.2298
18.5404
18.8738
19.2297
19.6081
20.0089
20.432
20.8771
21.344
21.8325
22.3422
22.8727
23.4232
23.9932
24.5815
25.1872
25.8086
26.4443
27.0919
27.7492
28.413
29.0804
29.7466
30.4086
31.0585
31.696
32.3039
32.8991
16.3059
16.3173
16.3685
16.444
16.5428
16.6663
16.8137
16.9847
17.1791
17.3966
17.6371
17.9004
18.1864
18.495
18.8261
19.1795
19.5552
19.9529
20.3726
20.8141
21.277
21.7612
22.2661
22.7913
23.3361
23.8998
24.4814
25.0796
25.693
26.3198
26.9579
27.6049
28.2576
28.913
29.5663
30.2144
30.8497
31.4714
32.0633
32.6404
16.2717
16.2832
16.334
16.4092
16.5074
16.6302
16.7768
16.9468
17.14
17.3561
17.5951
17.8567
18.1408
18.4472
18.7759
19.1267
19.4995
19.894
20.3102
20.7479
21.2066
21.6862
22.1861
22.7059
23.2448
23.802
24.3764
24.967
25.572
26.1897
26.818
27.4543
28.0955
28.7385
29.3786
30.0124
30.6327
31.2382
31.8136
32.3721
16.2358
16.2474
16.2977
16.3725
16.4701
16.5922
16.7379
16.9068
17.0988
17.3135
17.5509
17.8106
18.0927
18.3969
18.723
19.0711
19.4408
19.832
20.2446
20.6782
21.1326
21.6074
22.1022
22.6162
23.1489
23.6994
24.2666
24.8491
25.4455
26.0538
26.6719
27.2972
27.9266
28.5567
29.1832
29.8024
30.4073
30.9961
31.5545
32.0942
16.1979
16.2096
16.2594
16.3338
16.4309
16.5521
16.6969
16.8647