/*--------------------------------*- C++ -*----------------------------------*\
| =========                 |                                                 |
| \\      /  F ield         | OpenFOAM: The Open Source CFD Toolbox           |
|  \\    /   O peration     | Version:  2506                                  |
|   \\  /    A nd           | Website:  www.openfoam.com                      |
|    \\/     M anipulation  |                                                 |
\*---------------------------------------------------------------------------*/
FoamFile
{
    version     2.0;
    format      ascii;
    arch        "LSB;label=32;scalar=64";
    class       surfaceScalarField;
    location    "6000";
    object      phi;
}
// * * * * * * * * * * * * * * * * * * * * * * * * * * * * * * * * * * * * * //

dimensions      [0 3 -1 0 0 0 0];

oriented        oriented;

internalField   nonuniform List<scalar> 
143613
(
9.61563e-07
6.52084e-09
9.55611e-07
5.95179e-09
9.49445e-07
6.1661e-09
9.42e-07
7.44451e-09
9.33619e-07
8.38117e-09
9.2443e-07
9.18899e-09
9.14524e-07
9.90624e-09
9.03949e-07
1.05748e-08
8.92728e-07
1.1221e-08
8.80866e-07
1.1862e-08
8.68358e-07
1.25083e-08
8.55189e-07
1.31692e-08
8.41336e-07
1.38524e-08
8.26774e-07
1.45624e-08
8.11469e-07
1.53045e-08
7.95386e-07
1.60838e-08
7.7848e-07
1.69052e-08
7.60708e-07
1.77728e-08
7.42009e-07
1.86987e-08
7.22307e-07
1.97017e-08
7.01542e-07
2.0765e-08
6.79674e-07
2.1868e-08
6.5664e-07
2.30343e-08
6.32357e-07
2.42827e-08
6.06717e-07
2.56405e-08
5.79628e-07
2.70889e-08
5.50988e-07
2.86402e-08
5.20729e-07
3.02591e-08
4.88708e-07
3.2021e-08
4.54926e-07
3.37816e-08
4.19171e-07
3.5755e-08
3.81652e-07
3.75187e-08
3.41929e-07
3.97228e-08
3.00821e-07
4.11087e-08
2.57149e-07
4.36714e-08
2.1343e-07
4.37191e-08
1.66187e-07
4.7243e-08
1.22648e-07
4.35391e-08
7.2236e-08
5.04121e-08
3.47472e-08
3.74888e-08
2.9839e-06
2.36823e-08
2.96865e-06
2.1201e-08
2.9513e-06
2.35127e-08
2.9304e-06
2.83411e-08
2.90657e-06
3.22107e-08
2.88029e-06
3.5469e-08
2.85182e-06
3.83828e-08
2.8213e-06
4.10932e-08
2.78881e-06
4.37086e-08
2.75438e-06
4.62982e-08
2.71798e-06
4.89055e-08
2.67958e-06
5.15671e-08
2.63912e-06
5.4314e-08
2.59652e-06
5.71653e-08
2.55168e-06
6.01425e-08
2.5045e-06
6.3266e-08
2.45485e-06
6.65564e-08
2.40259e-06
7.00302e-08
2.34754e-06
7.37438e-08
2.28948e-06
7.77692e-08
2.2282e-06
8.20359e-08
2.1636e-06
8.64698e-08
2.09549e-06
9.11508e-08
2.02359e-06
9.61781e-08
1.94759e-06
1.01645e-07
1.86718e-06
1.07498e-07
1.78206e-06
1.13753e-07
1.69196e-06
1.20362e-07
1.59651e-06
1.27468e-07
1.49551e-06
1.34786e-07
1.38857e-06
1.42692e-07
1.27572e-06
1.50369e-07
1.15652e-06
1.58925e-07
1.03164e-06
1.65988e-07
9.00364e-07
1.74948e-07
7.64987e-07
1.79096e-07
6.23774e-07
1.88455e-07
4.82914e-07
1.844e-07
3.36943e-07
1.96383e-07
1.64322e-07
2.07368e-07
5.15687e-06
4.61351e-08
5.13459e-06
4.34835e-08
5.10736e-06
5.07361e-08
5.07424e-06
6.14582e-08
5.03616e-06
7.0295e-08
4.99391e-06
7.77217e-08
4.94791e-06
8.43772e-08
4.89844e-06
9.05649e-08
4.84562e-06
9.65277e-08
4.7895e-06
1.02424e-07
4.73005e-06
1.08354e-07
4.66722e-06
1.14399e-07
4.6009e-06
1.2063e-07
4.53097e-06
1.27092e-07
4.45728e-06
1.33834e-07
4.37965e-06
1.40902e-07
4.29786e-06
1.48344e-07
4.21169e-06
1.562e-07
4.12082e-06
1.64609e-07
4.02486e-06
1.73729e-07
3.9235e-06
1.83396e-07
3.81652e-06
1.93451e-07
3.70361e-06
2.0406e-07
3.58431e-06
2.1548e-07
3.45805e-06
2.27906e-07
3.32431e-06
2.41236e-07
3.18258e-06
2.55481e-07
3.03231e-06
2.70632e-07
2.87293e-06
2.86856e-07
2.7039e-06
3.03812e-07
2.52472e-06
3.21875e-07
2.335e-06
3.40085e-07
2.13446e-06
3.59467e-07
1.9231e-06
3.7735e-07
1.70124e-06
3.96808e-07
1.46954e-06
4.10797e-07
1.23004e-06
4.27949e-07
9.83838e-07
4.30603e-07
7.37307e-07
4.42915e-07
4.04483e-07
4.97146e-07
7.45666e-06
6.77549e-08
7.42966e-06
7.04811e-08
7.39425e-06
8.61528e-08
7.35053e-06
1.05175e-07
7.2999e-06
1.20923e-07
7.24337e-06
1.3425e-07
7.18154e-06
1.46206e-07
7.11479e-06
1.57323e-07
7.04329e-06
1.68024e-07
6.96712e-06
1.78596e-07
6.88626e-06
1.89216e-07
6.80062e-06
2.00032e-07
6.71009e-06
2.11168e-07
6.61447e-06
2.22709e-07
6.51356e-06
2.34742e-07
6.40711e-06
2.4735e-07
6.29484e-06
2.60621e-07
6.17641e-06
2.74629e-07
6.05137e-06
2.89645e-07
5.91916e-06
3.05944e-07
5.77933e-06
3.23218e-07
5.63159e-06
3.412e-07
5.47547e-06
3.60176e-07
5.31031e-06
3.80644e-07
5.13527e-06
4.02937e-07
4.94962e-06
4.26888e-07
4.75259e-06
4.52512e-07
4.54333e-06
4.7989e-07
4.32099e-06
5.09195e-07
4.08472e-06
5.40089e-07
3.83373e-06
5.72865e-07
3.56725e-06
6.06567e-07
3.28488e-06
6.41835e-07
2.98607e-06
6.76161e-07
2.67159e-06
7.11289e-07
2.341e-06
7.41384e-07
1.99861e-06
7.70337e-07
1.64241e-06
7.86804e-07
1.2867e-06
7.98625e-07
7.63971e-07
9.27213e-07
9.79286e-06
8.23844e-08
9.76322e-06
1.00118e-07
9.72157e-06
1.27801e-07
9.66953e-06
1.57218e-07
9.60886e-06
1.81591e-07
9.54069e-06
2.02417e-07
9.46577e-06
2.21131e-07
9.38456e-06
2.38532e-07
9.29731e-06
2.55272e-07
9.20411e-06
2.71793e-07
9.10495e-06
2.88376e-07
8.99974e-06
3.05249e-07
8.8883e-06
3.22606e-07
8.77043e-06
3.40584e-07
8.64585e-06
3.59318e-07
8.51425e-06
3.78945e-07
8.37528e-06
3.996e-07
8.2285e-06
4.21407e-07
8.07333e-06
4.44817e-07
7.90902e-06
4.70247e-07
7.73504e-06
4.97201e-07
7.55096e-06
5.25285e-07
7.35618e-06
5.54947e-07
7.14982e-06
5.87013e-07
6.93077e-06
6.21984e-07
6.69805e-06
6.59604e-07
6.45063e-06
6.99935e-07
6.18732e-06
7.43198e-07
5.90695e-06
7.8957e-07
5.60826e-06
8.38771e-07
5.29013e-06
8.90996e-07
4.95131e-06
9.45392e-07
4.59107e-06
1.00207e-06
4.20828e-06
1.05895e-06
3.80366e-06
1.11591e-06
3.37591e-06
1.16913e-06
2.93035e-06
1.21589e-06
2.46318e-06
1.25398e-06
1.99336e-06
1.26844e-06
1.24875e-06
1.50858e-06
1.20323e-05
9.28109e-08
1.20011e-05
1.31315e-07
1.19552e-05
1.73667e-07
1.18974e-05
2.15052e-07
1.18295e-05
2.49455e-07
1.17528e-05
2.79137e-07
1.16681e-05
3.05867e-07
1.15759e-05
3.30723e-07
1.14765e-05
3.5462e-07
1.13702e-05
3.78183e-07
1.12567e-05
4.01809e-07
1.11361e-05
4.25826e-07
1.10082e-05
4.5051e-07
1.08728e-05
4.76062e-07
1.07294e-05
5.02678e-07
1.05778e-05
5.30555e-07
1.04175e-05
5.59891e-07
1.0248e-05
5.90872e-07
1.00687e-05
6.24175e-07
9.87855e-06
6.60374e-07
9.67701e-06
6.98738e-07
9.46354e-06
7.38756e-07
9.23741e-06
7.81077e-07
8.99749e-06
8.2693e-07
8.74247e-06
8.77008e-07
8.47113e-06
9.30943e-07
8.18216e-06
9.88905e-07
7.87404e-06
1.05131e-06
7.54525e-06
1.11836e-06
7.19414e-06
1.18989e-06
6.81912e-06
1.26601e-06
6.41843e-06
1.34608e-06
5.99087e-06
1.42963e-06
5.53457e-06
1.51525e-06
5.04986e-06
1.60062e-06
4.53444e-06
1.68455e-06
3.99381e-06
1.75652e-06
3.42265e-06
1.82514e-06
2.84238e-06
1.84872e-06
1.85703e-06
2.2341e-06
1.40931e-05
1.02708e-07
1.40609e-05
1.63588e-07
1.40124e-05
2.22114e-07
1.39509e-05
2.76602e-07
1.38781e-05
3.22187e-07
1.37954e-05
3.61869e-07
1.37036e-05
3.97688e-07
1.36033e-05
4.30999e-07
1.34949e-05
4.63011e-07
1.33786e-05
4.94542e-07
1.32542e-05
5.26118e-07
1.31219e-05
5.5818e-07
1.29813e-05
5.91099e-07
1.28322e-05
6.25149e-07
1.26743e-05
6.60598e-07
1.25071e-05
6.97712e-07
1.23303e-05
7.36762e-07
1.21431e-05
7.78006e-07
1.19449e-05
8.2239e-07
1.17347e-05
8.70637e-07
1.15117e-05
9.21743e-07
1.12753e-05
9.75111e-07
1.10247e-05
1.03163e-06
1.07587e-05
1.093e-06
1.04756e-05
1.16009e-06
1.01741e-05
1.23241e-06
9.8527e-06
1.31032e-06
9.50954e-06
1.39448e-06
9.1428e-06
1.48509e-06
8.75046e-06
1.58223e-06
8.33055e-06
1.68592e-06
7.88075e-06
1.79589e-06
7.39938e-06
1.91099e-06
6.88379e-06
2.03085e-06
6.33377e-06
2.15064e-06
5.74586e-06
2.27247e-06
5.12532e-06
2.37706e-06
4.46496e-06
2.4855e-06
3.78745e-06
2.52624e-06
2.57645e-06
3.06803e-06
1.5972e-05
1.14016e-07
1.59392e-05
1.96387e-07
1.58894e-05
2.71896e-07
1.58255e-05
3.40505e-07
1.57494e-05
3.98313e-07
1.56623e-05
4.48928e-07
1.55653e-05
4.94713e-07
1.54589e-05
5.37366e-07
1.53436e-05
5.78353e-07
1.52194e-05
6.18679e-07
1.50865e-05
6.59007e-07
1.49448e-05
6.99904e-07
1.47941e-05
7.41843e-07
1.4634e-05
7.85182e-07
1.44644e-05
8.30268e-07
1.42846e-05
8.77446e-07
1.40943e-05
9.27066e-07
1.38929e-05
9.79471e-07
1.36793e-05
1.03591e-06
1.34528e-05
1.09722e-06
1.32124e-05
1.1621e-06
1.29576e-05
1.22992e-06
1.26874e-05
1.30186e-06
1.24003e-05
1.38012e-06
1.20946e-05
1.46571e-06
1.1769e-05
1.558e-06
1.14217e-05
1.65765e-06
1.10506e-05
1.76558e-06
1.06537e-05
1.88201e-06
1.02286e-05
2.00731e-06
9.77307e-06
2.14146e-06
9.28432e-06
2.28464e-06
8.76025e-06
2.43506e-06
8.1975e-06
2.5936e-06
7.59536e-06
2.75277e-06
6.94922e-06
2.91861e-06
6.26398e-06
3.0623e-06
5.53052e-06
3.21895e-06
4.77198e-06
3.28478e-06
3.38932e-06
3.9591e-06
1.77069e-05
1.26507e-07
1.76743e-05
2.29018e-07
1.76241e-05
3.22076e-07
1.75589e-05
4.05739e-07
1.74805e-05
4.76744e-07
1.73902e-05
5.39191e-07
1.72891e-05
5.95806e-07
1.71778e-05
6.48679e-07
1.70567e-05
6.99497e-07
1.69259e-05
7.4944e-07
1.67856e-05
7.99315e-07
1.66357e-05
8.49822e-07
1.6476e-05
9.01547e-07
1.63062e-05
9.54937e-07
1.6126e-05
1.01043e-06
1.5935e-05
1.06845e-06
1.57327e-05
1.12944e-06
1.55183e-05
1.19385e-06
1.52912e-05
1.26302e-06
1.50505e-05
1.3379e-06
1.47954e-05
1.41723e-06
1.45249e-05
1.50041e-06
1.4238e-05
1.5888e-06
1.3933e-05
1.68509e-06
1.36083e-05
1.7904e-06
1.32624e-05
1.90394e-06
1.28932e-05
2.02677e-06
1.24987e-05
2.1601e-06
1.20766e-05
2.30416e-06
1.16242e-05
2.45966e-06
1.11391e-05
2.62658e-06
1.06181e-05
2.80564e-06
1.00587e-05
2.99442e-06
9.4571e-06
3.19525e-06
8.81199e-06
3.39788e-06
8.11783e-06
3.61276e-06
7.37908e-06
3.80105e-06
6.58497e-06
4.01305e-06
5.75851e-06
4.11125e-06
4.28003e-06
4.8678e-06
1.93349e-05
1.38914e-07
1.93029e-05
2.6103e-07
1.9253e-05
3.72019e-07
1.91873e-05
4.71452e-07
1.91075e-05
5.56507e-07
1.9015e-05
6.31682e-07
1.89108e-05
7.00025e-07
1.87955e-05
7.63998e-07
1.86695e-05
8.25507e-07
1.8533e-05
8.85893e-07
1.83862e-05
9.46111e-07
1.8229e-05
1.00701e-06
1.80613e-05
1.06928e-06
1.78827e-05
1.13348e-06
1.7693e-05
1.20013e-06
1.74917e-05
1.26976e-06
1.72783e-05
1.3429e-06
1.7052e-05
1.4201e-06
1.68124e-05
1.50269e-06
1.65586e-05
1.59166e-06
1.62897e-05
1.68608e-06
1.60047e-05
1.78547e-06
1.57022e-05
1.89125e-06
1.5381e-05
2.00634e-06
1.50394e-05
2.13201e-06
1.46755e-05
2.26776e-06
1.42873e-05
2.41503e-06
1.38722e-05
2.57515e-06
1.34281e-05
2.74832e-06
1.2952e-05
2.93574e-06
1.24412e-05
3.13736e-06
1.18923e-05
3.35454e-06
1.13025e-05
3.58422e-06
1.06674e-05
3.83039e-06
9.9853e-06
4.07995e-06
9.24994e-06
4.34813e-06
8.46516e-06
4.58583e-06
7.61896e-06
4.85925e-06
6.73362e-06
4.99659e-06
5.23739e-06
5.77626e-06
2.08809e-05
1.51105e-07
2.08496e-05
2.923e-07
2.08003e-05
4.21354e-07
2.07347e-05
5.3704e-07
2.06544e-05
6.36839e-07
2.05605e-05
7.25523e-07
2.04541e-05
8.06423e-07
2.03358e-05
8.82328e-07
2.02059e-05
9.55347e-07
2.00649e-05
1.02697e-06
1.99127e-05
1.09829e-06
1.97494e-05
1.17033e-06
1.95748e-05
1.24389e-06
1.93886e-05
1.31962e-06
1.91906e-05
1.39815e-06
1.89802e-05
1.48011e-06
1.8757e-05
1.56613e-06
1.85202e-05
1.65689e-06
1.82692e-05
1.75368e-06
1.80033e-05
1.85756e-06
1.77216e-05
1.96786e-06
1.74228e-05
2.08427e-06
1.71056e-05
2.20837e-06
1.6769e-05
2.34298e-06
1.64114e-05
2.48965e-06
1.60307e-05
2.64845e-06
1.56248e-05
2.8209e-06
1.51912e-05
3.00871e-06
1.47273e-05
3.2123e-06
1.42299e-05
3.43314e-06
1.36961e-05
3.67115e-06
1.31222e-05
3.92838e-06
1.25053e-05
4.20117e-06
1.18404e-05
4.4953e-06
1.11255e-05
4.79485e-06
1.03536e-05
5.12004e-06
9.52791e-06
5.41149e-06
8.63554e-06
5.75163e-06
7.69758e-06
5.93454e-06
6.25377e-06
6.68121e-06
2.2365e-05
1.63017e-07
2.23345e-05
3.22839e-07
2.22859e-05
4.69897e-07
2.22209e-05
6.02111e-07
2.21405e-05
7.17177e-07
2.2046e-05
8.20019e-07
2.19382e-05
9.14215e-07
2.18177e-05
1.00283e-06
2.1685e-05
1.08812e-06
2.15402e-05
1.17172e-06
2.13836e-05
1.25488e-06
2.12152e-05
1.33879e-06
2.10347e-05
1.42435e-06
2.0842e-05
1.51231e-06
2.06368e-05
1.60341e-06
2.04185e-05
1.69838e-06
2.01866e-05
1.79797e-06
1.99405e-05
1.90299e-06
1.96795e-05
2.01476e-06
1.94026e-05
2.13438e-06
1.91092e-05
2.26135e-06
1.87979e-05
2.39557e-06
1.84674e-05
2.53882e-06
1.81165e-05
2.6939e-06
1.77436e-05
2.86254e-06
1.73468e-05
3.04528e-06
1.6924e-05
3.24366e-06
1.64729e-05
3.45983e-06
1.59905e-05
3.69468e-06
1.54735e-05
3.95012e-06
1.49187e-05
4.22601e-06
1.43221e-05
4.52498e-06
1.36804e-05
4.84286e-06
1.29884e-05
5.18731e-06
1.22436e-05
5.53959e-06
1.14386e-05
5.92509e-06
1.05758e-05
6.27428e-06
9.64154e-06
6.68588e-06
8.65556e-06
6.92053e-06
7.32374e-06
7.58558e-06
2.38039e-05
1.74733e-07
2.3774e-05
3.52725e-07
2.37263e-05
5.17589e-07
2.3662e-05
6.66431e-07
2.3582e-05
7.97131e-07
2.34874e-05
9.14649e-07
2.33788e-05
1.02279e-06
2.32568e-05
1.12482e-06
2.31219e-05
1.2231e-06
2.29742e-05
1.31935e-06
2.28141e-05
1.41506e-06
2.26413e-05
1.51154e-06
2.24559e-05
1.60977e-06
2.22576e-05
1.71062e-06
2.2046e-05
1.81496e-06
2.18208e-05
1.92363e-06
2.15813e-05
2.03746e-06
2.13269e-05
2.15741e-06
2.10568e-05
2.28487e-06
2.07701e-05
2.421e-06
2.04661e-05
2.56542e-06
2.01434e-05
2.71821e-06
1.98008e-05
2.8814e-06
1.94369e-05
3.05786e-06
1.905e-05
3.24945e-06
1.86381e-05
3.4571e-06
1.81994e-05
3.68243e-06
1.77313e-05
3.92788e-06
1.72313e-05
4.19474e-06
1.66958e-05
4.48559e-06
1.61213e-05
4.80048e-06
1.55036e-05
5.14274e-06
1.48389e-05
5.5075e-06
1.41218e-05
5.90438e-06
1.33495e-05
6.3119e-06
1.25139e-05
6.76071e-06
1.16169e-05
7.17131e-06
1.0644e-05
7.65872e-06
9.6136e-06
7.95097e-06
8.44327e-06
8.49407e-06
2.5211e-05
1.86336e-07
2.51817e-05
3.8207e-07
2.51348e-05
5.64456e-07
2.50714e-05
7.29904e-07
2.4992e-05
8.7647e-07
2.48976e-05
1.00907e-06
2.47887e-05
1.1317e-06
2.46657e-05
1.24778e-06
2.45292e-05
1.35966e-06
2.43793e-05
1.4692e-06
2.42163e-05
1.57811e-06
2.404e-05
1.68784e-06
2.38503e-05
1.7994e-06
2.36472e-05
1.9138e-06
2.34301e-05
2.03203e-06
2.31987e-05
2.15503e-06
2.29524e-05
2.28376e-06
2.26905e-05
2.41929e-06
2.24123e-05
2.56313e-06
2.21168e-05
2.71649e-06
2.18031e-05
2.8791e-06
2.14701e-05
3.05122e-06
2.11164e-05
3.23511e-06
2.07404e-05
3.43378e-06
2.03407e-05
3.64925e-06
1.9915e-05
3.88273e-06
1.94614e-05
4.13606e-06
1.89774e-05
4.41188e-06
1.84603e-05
4.7118e-06
1.7907e-05
5.03895e-06
1.73137e-05
5.39372e-06
1.6676e-05
5.78046e-06
1.59898e-05
6.19368e-06
1.52493e-05
6.64493e-06
1.44512e-05
7.10999e-06
1.3587e-05
7.62488e-06
1.26581e-05
8.10029e-06
1.16492e-05
8.66754e-06
1.05773e-05
9.02294e-06
9.60916e-06
9.41137e-06
2.65981e-05
1.98047e-07
2.65691e-05
4.10998e-07
2.6523e-05
6.10632e-07
2.64603e-05
7.92603e-07
2.63815e-05
9.55181e-07
2.62875e-05
1.10316e-06
2.61784e-05
1.24073e-06
2.60548e-05
1.37136e-06
2.59171e-05
1.49736e-06
2.57656e-05
1.62074e-06
2.56002e-05
1.7435e-06
2.54209e-05
1.86711e-06
2.52278e-05
1.99259e-06
2.50204e-05
2.12115e-06
2.47985e-05
2.25391e-06
2.45617e-05
2.39187e-06
2.43093e-05
2.53613e-06
2.40407e-05
2.6879e-06
2.37551e-05
2.84877e-06
2.34515e-05
3.02005e-06
2.3129e-05
3.20159e-06
2.27865e-05
3.39376e-06
2.24225e-05
3.59908e-06
2.20355e-05
3.82076e-06
2.16238e-05
4.06095e-06
2.11854e-05
4.32117e-06
2.0718e-05
4.60345e-06
2.02191e-05
4.91072e-06
1.96861e-05
5.24483e-06
1.91156e-05
5.60945e-06
1.85042e-05
6.00515e-06
1.78472e-05
6.43744e-06
1.71404e-05
6.90048e-06
1.63776e-05
7.40777e-06
1.55551e-05
7.93241e-06
1.46641e-05
8.51594e-06
1.3705e-05
9.05934e-06
1.26624e-05
9.7102e-06
1.15513e-05
1.0134e-05
1.08188e-05
1.03417e-05
2.79758e-05
2.09608e-07
2.79472e-05
4.39645e-07
2.79014e-05
6.56424e-07
2.78391e-05
8.54905e-07
2.77606e-05
1.03364e-06
2.76665e-05
1.19728e-06
2.75572e-05
1.35004e-06
2.74331e-05
1.49547e-06
2.72945e-05
1.63598e-06
2.71415e-05
1.77371e-06
2.69742e-05
1.91084e-06
2.67924e-05
2.04886e-06
2.65962e-05
2.1888e-06
2.63852e-05
2.33213e-06
2.61591e-05
2.48001e-06
2.59174e-05
2.63353e-06
2.56596e-05
2.79395e-06
2.53849e-05
2.96258e-06
2.50926e-05
3.14113e-06
2.47816e-05
3.33102e-06
2.4451e-05
3.53218e-06
2.40997e-05
3.74512e-06
2.37262e-05
3.97259e-06
2.33289e-05
4.21803e-06
2.29061e-05
4.48375e-06
2.24557e-05
4.77155e-06
2.19755e-05
5.0837e-06
2.14628e-05
5.42341e-06
2.09148e-05
5.79281e-06
2.03282e-05
6.19606e-06
1.96994e-05
6.63392e-06
1.90238e-05
7.11301e-06
1.82971e-05
7.62719e-06
1.75129e-05
8.19202e-06
1.66671e-05
8.77816e-06
1.57504e-05
9.43265e-06
1.47627e-05
1.0047e-05
1.36879e-05
1.0785e-05
1.25399e-05
1.12819e-05
1.207e-05
1.12887e-05
2.93528e-05
2.20976e-07
2.93243e-05
4.68105e-07
2.92787e-05
7.02048e-07
2.92165e-05
9.17095e-07
2.9138e-05
1.11215e-06
2.90436e-05
1.29169e-06
2.89338e-05
1.4599e-06
2.88089e-05
1.62038e-06
2.86691e-05
1.77575e-06
2.85146e-05
1.92823e-06
2.83453e-05
2.08007e-06
2.81613e-05
2.23285e-06
2.79624e-05
2.38773e-06
2.77482e-05
2.54634e-06
2.75184e-05
2.70987e-06
2.72724e-05
2.8795e-06
2.70097e-05
3.05668e-06
2.67295e-05
3.24277e-06
2.6431e-05
3.43964e-06
2.61132e-05
3.6488e-06
2.57751e-05
3.87026e-06
2.54155e-05
4.10467e-06
2.50331e-05
4.355e-06
2.46262e-05
4.62493e-06
2.4193e-05
4.91696e-06
2.37314e-05
5.23315e-06
2.32391e-05
5.57601e-06
2.27134e-05
5.94911e-06
2.21514e-05
6.35481e-06
2.15497e-05
6.79782e-06
2.09045e-05
7.27905e-06
2.02113e-05
7.80619e-06
1.94656e-05
8.3729e-06
1.86609e-05
8.99676e-06
1.77927e-05
9.64631e-06
1.68516e-05
1.03738e-05
1.58364e-05
1.10622e-05
1.47311e-05
1.18904e-05
1.35475e-05
1.24655e-05
1.33613e-05
1.22563e-05
3.07348e-05
2.32195e-07
3.07065e-05
4.96426e-07
3.0661e-05
7.47554e-07
3.05988e-05
9.79223e-07
3.05202e-05
1.19074e-06
3.04255e-05
1.3864e-06
3.03151e-05
1.57035e-06
3.01892e-05
1.74624e-06
3.00481e-05
1.91685e-06
2.98919e-05
2.08447e-06
2.97206e-05
2.25134e-06
2.95342e-05
2.41921e-06
2.93325e-05
2.58943e-06
2.91152e-05
2.76366e-06
2.88819e-05
2.94319e-06
2.8632e-05
3.12941e-06
2.83648e-05
3.32387e-06
2.80795e-05
3.528e-06
2.77754e-05
3.74381e-06
2.74513e-05
3.97289e-06
2.71062e-05
4.21533e-06
2.6739e-05
4.4719e-06
2.63482e-05
4.74579e-06
2.59322e-05
5.04091e-06
2.54892e-05
5.35998e-06
2.5017e-05
5.70533e-06
2.45133e-05
6.07973e-06
2.39753e-05
6.48709e-06
2.34001e-05
6.93005e-06
2.27841e-05
7.41385e-06
2.21235e-05
7.93962e-06
2.14136e-05
8.51604e-06
2.06499e-05
9.13661e-06
1.98257e-05
9.82094e-06
1.89364e-05
1.05357e-05
1.7972e-05
1.13381e-05
1.69309e-05
1.21034e-05
1.57968e-05
1.30244e-05
1.45791e-05
1.36831e-05
1.46907e-05
1.32497e-05
3.21266e-05
2.43346e-07
3.20984e-05
5.24664e-07
3.20529e-05
7.93003e-07
3.19908e-05
1.04135e-06
3.19121e-05
1.26945e-06
3.1817e-05
1.48143e-06
3.1706e-05
1.6814e-06
3.15792e-05
1.87303e-06
3.14368e-05
2.05922e-06
3.12789e-05
2.24236e-06
3.11056e-05
2.42469e-06
3.09167e-05
2.60808e-06
3.07121e-05
2.79403e-06
3.04916e-05
2.98421e-06
3.02547e-05
3.18008e-06
3.00009e-05
3.38319e-06
2.97295e-05
3.59525e-06
2.94396e-05
3.8179e-06
2.91302e-05
4.05322e-06
2.88002e-05
4.30287e-06
2.84486e-05
4.56695e-06
2.80742e-05
4.84634e-06
2.76755e-05
5.14447e-06
2.72509e-05
5.46548e-06
2.67986e-05
5.81231e-06
2.63164e-05
6.18756e-06
2.58018e-05
6.59428e-06
2.52522e-05
7.03673e-06
2.46644e-05
7.51785e-06
2.40348e-05
8.04343e-06
2.33596e-05
8.61482e-06
2.2634e-05
9.24167e-06
2.18532e-05
9.91739e-06
2.10106e-05
1.06636e-05
2.01011e-05
1.14452e-05
1.91149e-05
1.23243e-05
1.80492e-05
1.31691e-05
1.68881e-05
1.41855e-05
1.56384e-05
1.49328e-05
1.60563e-05
1.42728e-05
3.35324e-05
2.54449e-07
3.35042e-05
5.52877e-07
3.34587e-05
8.3846e-07
3.33965e-05
1.10355e-06
3.33176e-05
1.34836e-06
3.32222e-05
1.57683e-06
3.31106e-05
1.79306e-06
3.29829e-05
2.00072e-06
3.28393e-05
2.20283e-06
3.26798e-05
2.40183e-06
3.25045e-05
2.6e-06
3.23133e-05
2.79933e-06
3.21059e-05
3.00143e-06
3.18821e-05
3.20801e-06
3.16415e-05
3.42065e-06
3.13837e-05
3.64099e-06
3.11081e-05
3.87088e-06
3.08137e-05
4.11231e-06
3.04993e-05
4.36759e-06
3.01638e-05
4.63839e-06
2.9806e-05
4.92475e-06
2.94247e-05
5.22762e-06
2.90185e-05
5.55065e-06
2.85858e-05
5.89822e-06
2.81246e-05
6.2735e-06
2.76328e-05
6.67937e-06
2.71079e-05
7.11917e-06
2.65471e-05
7.59751e-06
2.59473e-05
8.11764e-06
2.53048e-05
8.68592e-06
2.46157e-05
9.30394e-06
2.38751e-05
9.98231e-06
2.30781e-05
1.07144e-05
2.22179e-05
1.15237e-05
2.12894e-05
1.23738e-05
2.02825e-05
1.33312e-05
1.91936e-05
1.42579e-05
1.80072e-05
1.5372e-05
1.67276e-05
1.62124e-05
1.74559e-05
1.5328e-05
3.49558e-05
2.65593e-07
3.49276e-05
5.81127e-07
3.4882e-05
8.83993e-07
3.48197e-05
1.16589e-06
3.47405e-05
1.42752e-06
3.46447e-05
1.67265e-06
3.45324e-05
1.90536e-06
3.44038e-05
2.12933e-06
3.4259e-05
2.34765e-06
3.4098e-05
2.56284e-06
3.39207e-05
2.77724e-06
3.37272e-05
2.99289e-06
3.35171e-05
3.21153e-06
3.32901e-05
3.43494e-06
3.3046e-05
3.66479e-06
3.27842e-05
3.90281e-06
3.25042e-05
4.15092e-06
3.22052e-05
4.41131e-06
3.1886e-05
4.68677e-06
3.15452e-05
4.97921e-06
3.11815e-05
5.28845e-06
3.07936e-05
5.61543e-06
3.03803e-05
5.96398e-06
2.99398e-05
6.33876e-06
2.94701e-05
6.74316e-06
2.89691e-05
7.18037e-06
2.84343e-05
7.65397e-06
2.78629e-05
8.16896e-06
2.72516e-05
8.72892e-06
2.65967e-05
9.34076e-06
2.58943e-05
1.00064e-05
2.51393e-05
1.07373e-05
2.43269e-05
1.15269e-05
2.345e-05
1.24005e-05
2.25033e-05
1.33205e-05
2.14768e-05
1.43578e-05
2.03661e-05
1.53685e-05
1.91557e-05
1.65824e-05
1.78482e-05
1.75199e-05
1.88873e-05
1.64168e-05
3.64e-05
2.76776e-07
3.63717e-05
6.09472e-07
3.6326e-05
9.29669e-07
3.62634e-05
1.22845e-06
3.61839e-05
1.50702e-06
3.60876e-05
1.76896e-06
3.59746e-05
2.01835e-06
3.58451e-05
2.25889e-06
3.5699e-05
2.4937e-06
3.55365e-05
2.7254e-06
3.53573e-05
2.95636e-06
3.51615e-05
3.1887e-06
3.49488e-05
3.42427e-06
3.47188e-05
3.6649e-06
3.44712e-05
3.91239e-06
3.42055e-05
4.16853e-06
3.39211e-05
4.43533e-06
3.36174e-05
4.71505e-06
3.32933e-05
5.01083e-06
3.29473e-05
5.32518e-06
3.25779e-05
5.65785e-06
3.21839e-05
6.00951e-06
3.17636e-05
6.3842e-06
3.13156e-05
6.78681e-06
3.08378e-05
7.22098e-06
3.03279e-05
7.69018e-06
2.97836e-05
8.19829e-06
2.92019e-05
8.75067e-06
2.85796e-05
9.35124e-06
2.79129e-05
1.00075e-05
2.71977e-05
1.07216e-05
2.6429e-05
1.1506e-05
2.56017e-05
1.23542e-05
2.47089e-05
1.32933e-05
2.37449e-05
1.42845e-05
2.26996e-05
1.54031e-05
2.15683e-05
1.64999e-05
2.03353e-05
1.78154e-05
1.90016e-05
1.88535e-05
2.03485e-05
1.75405e-05
3.78678e-05
2.88139e-07
3.78393e-05
6.37967e-07
3.77935e-05
9.75556e-07
3.77306e-05
1.29131e-06
3.76507e-05
1.58693e-06
3.75538e-05
1.86583e-06
3.74401e-05
2.13211e-06
3.73095e-05
2.38943e-06
3.71622e-05
2.64101e-06
3.69981e-05
2.88951e-06
3.68171e-05
3.13735e-06
3.66191e-05
3.38673e-06
3.64037e-05
3.6396e-06
3.61708e-05
3.89785e-06
3.59198e-05
4.16337e-06
3.56503e-05
4.43806e-06
3.53616e-05
4.724e-06
3.50531e-05
5.02352e-06
3.47241e-05
5.33986e-06
3.4373e-05
5.6763e-06
3.3998e-05
6.03282e-06
3.35978e-05
6.40969e-06
3.31709e-05
6.81108e-06
3.27156e-05
7.24213e-06
3.22299e-05
7.70669e-06
3.17116e-05
8.20853e-06
3.11581e-05
8.75182e-06
3.05664e-05
9.3423e-06
2.99334e-05
9.98422e-06
2.92553e-05
1.06856e-05
2.85278e-05
1.14491e-05
2.77459e-05
1.22879e-05
2.69044e-05
1.31957e-05
2.59963e-05
1.42014e-05
2.50158e-05
1.5265e-05
2.39527e-05
1.64662e-05
2.28017e-05
1.76508e-05
2.15473e-05
1.90698e-05
2.01892e-05
2.02117e-05
2.18374e-05
1.87002e-05
3.93619e-05
2.99632e-07
3.93332e-05
6.6666e-07
3.9287e-05
1.02172e-06
3.92238e-05
1.35453e-06
3.91434e-05
1.66733e-06
3.90459e-05
1.96334e-06
3.89313e-05
2.24669e-06
3.87997e-05
2.52103e-06
3.86511e-05
2.78962e-06
3.84854e-05
3.0552e-06
3.83025e-05
3.32023e-06
3.81023e-05
3.58699e-06
3.78844e-05
3.85749e-06
3.76485e-05
4.13374e-06
3.73942e-05
4.41769e-06
3.71209e-05
4.71134e-06
3.68281e-05
5.01686e-06
3.65149e-05
5.33665e-06
3.61809e-05
5.67393e-06
3.58245e-05
6.03265e-06
3.5444e-05
6.4133e-06
3.50379e-05
6.81584e-06
3.46045e-05
7.24446e-06
3.41421e-05
7.7045e-06
3.36488e-05
8.20004e-06
3.31221e-05
8.73515e-06
3.25597e-05
9.31426e-06
3.19585e-05
9.94353e-06
3.13152e-05
1.06275e-05
3.06259e-05
1.13749e-05
2.98865e-05
1.21884e-05
2.90919e-05
1.30826e-05
2.82367e-05
1.40508e-05
2.73139e-05
1.51241e-05
2.63176e-05
1.62614e-05
2.52374e-05
1.75463e-05
2.40678e-05
1.88205e-05
2.27931e-05
2.03445e-05
2.1412e-05
2.15928e-05
2.33522e-05
1.98972e-05
4.08846e-05
3.1122e-07
4.08557e-05
6.95597e-07
4.08092e-05
1.06822e-06
4.07455e-05
1.4182e-06
4.06645e-05
1.74831e-06
4.05663e-05
2.06157e-06
4.04508e-05
2.36217e-06
4.03181e-05
2.65375e-06
4.01681e-05
2.93959e-06
4.00008e-05
3.22251e-06
3.9816e-05
3.50503e-06
3.96135e-05
3.78948e-06
3.9393e-05
4.07796e-06
3.91542e-05
4.37256e-06
3.88966e-05
4.67531e-06
3.86196e-05
4.98831e-06
3.83226e-05
5.31383e-06
3.8005e-05
5.65434e-06
3.76658e-05
6.01304e-06
3.73042e-05
6.39429e-06
3.69182e-05
6.79926e-06
3.65062e-05
7.22789e-06
3.60664e-05
7.68424e-06
3.55971e-05
8.17381e-06
3.50963e-05
8.70088e-06
3.45616e-05
9.26984e-06
3.39904e-05
9.8854e-06
3.33799e-05
1.05541e-05
3.27266e-05
1.12808e-05
3.20266e-05
1.20749e-05
3.12757e-05
1.29393e-05
3.04687e-05
1.38896e-05
2.96003e-05
1.49192e-05
2.86634e-05
1.6061e-05
2.76518e-05
1.7273e-05
2.65554e-05
1.86427e-05
2.5368e-05
2.00079e-05
2.40741e-05
2.16383e-05
2.26713e-05
2.29957e-05
2.48911e-05
2.11323e-05
4.24382e-05
3.23001e-07
4.2409e-05
7.24821e-07
4.23621e-05
1.11511e-06
4.22979e-05
1.48238e-06
4.22163e-05
1.82994e-06
4.21172e-05
2.16062e-06
4.20007e-05
2.47864e-06
4.18668e-05
2.78766e-06
4.17154e-05
3.09099e-06
4.15464e-05
3.39151e-06
4.13597e-05
3.6918e-06
4.11549e-05
3.99424e-06
4.09319e-05
4.30103e-06
4.06901e-05
4.61431e-06
4.04292e-05
4.93623e-06
4.01485e-05
5.26897e-06
3.98475e-05
5.61488e-06
3.95253e-05
5.97655e-06
3.91811e-05
6.35717e-06
3.88142e-05
6.76124e-06
3.84227e-05
7.19071e-06
3.80048e-05
7.64584e-06
3.75587e-05
8.13036e-06
3.70825e-05
8.64993e-06
3.65743e-05
9.20907e-06
3.60318e-05
9.81243e-06
3.54521e-05
1.0465e-05
3.48324e-05
1.11738e-05
3.41693e-05
1.19439e-05
3.34589e-05
1.27853e-05
3.26968e-05
1.37014e-05
3.18779e-05
1.47085e-05
3.09967e-05
1.58004e-05
3.00462e-05
1.70115e-05
2.902e-05
1.82992e-05
2.7908e-05
1.97548e-05
2.67036e-05
2.12123e-05
2.53915e-05
2.29504e-05
2.39682e-05
2.4419e-05
2.64525e-05
2.24068e-05
4.40248e-05
3.34982e-07
4.39952e-05
7.54373e-07
4.39479e-05
1.16246e-06
4.38831e-05
1.54715e-06
4.38008e-05
1.9123e-06
4.37008e-05
2.26055e-06
4.35833e-05
2.59618e-06
4.34481e-05
2.92284e-06
4.32952e-05
3.24389e-06
4.31245e-05
3.56226e-06
4.29357e-05
3.88058e-06
4.27286e-05
4.20131e-06
4.25029e-05
4.52672e-06
4.22582e-05
4.85903e-06
4.1994e-05
5.20046e-06
4.17096e-05
5.55331e-06
4.14045e-05
5.92001e-06
4.10778e-05
6.30325e-06
4.07287e-05
6.70627e-06
4.03564e-05
7.1335e-06
3.99594e-05
7.58773e-06
3.95356e-05
8.06968e-06
3.90831e-05
8.58279e-06
3.86003e-05
9.13282e-06
3.80848e-05
9.72452e-06
3.75344e-05
1.03628e-05
3.69464e-05
1.1053e-05
3.63178e-05
1.18024e-05
3.56452e-05
1.26166e-05
3.49245e-05
1.3506e-05
3.41516e-05
1.44744e-05
3.3321e-05
1.55391e-05
3.24275e-05
1.66939e-05
3.14638e-05
1.79752e-05
3.04235e-05
1.93395e-05
2.92964e-05
2.08818e-05
2.80758e-05
2.24329e-05
2.67465e-05
2.42797e-05
2.53039e-05
2.58616e-05
2.80349e-05
2.37215e-05
4.56465e-05
3.47164e-07
4.56165e-05
7.8429e-07
4.55687e-05
1.21031e-06
4.55033e-05
1.61257e-06
4.54201e-05
1.99546e-06
4.53192e-05
2.36146e-06
4.52005e-05
2.71488e-06
4.50639e-05
3.05939e-06
4.49095e-05
3.39838e-06
4.47369e-05
3.73484e-06
4.4546e-05
4.07146e-06
4.43365e-05
4.41076e-06
4.41082e-05
4.75509e-06
4.38605e-05
5.10674e-06
4.35929e-05
5.46804e-06
4.33048e-05
5.84135e-06
4.29956e-05
6.22921e-06
4.26645e-05
6.63442e-06
4.23104e-05
7.06029e-06
4.19329e-05
7.51109e-06
4.15302e-05
7.99038e-06
4.11004e-05
8.49947e-06
4.06417e-05
9.04152e-06
4.01521e-05
9.62245e-06
3.96294e-05
1.02472e-05
3.90713e-05
1.09209e-05
3.84751e-05
1.16492e-05
3.78377e-05
1.24398e-05
3.71557e-05
1.32986e-05
3.6425e-05
1.42366e-05
3.56414e-05
1.5258e-05
3.47995e-05
1.63809e-05
3.3894e-05
1.75995e-05
3.29175e-05
1.89517e-05
3.18636e-05
2.03934e-05
3.07221e-05
2.20233e-05
2.94861e-05
2.3669e-05
2.81403e-05
2.56255e-05
2.66795e-05
2.73224e-05
2.96367e-05
2.50777e-05
4.73051e-05
3.59621e-07
4.72748e-05
8.14609e-07
4.72264e-05
1.25871e-06
4.71603e-05
1.67871e-06
4.70762e-05
2.07951e-06
4.69742e-05
2.46343e-06
4.68543e-05
2.83483e-06
4.67163e-05
3.19738e-06
4.65601e-05
3.55454e-06
4.63856e-05
3.90933e-06
4.61926e-05
4.26451e-06
4.59807e-05
4.62266e-06
4.57496e-05
4.9862e-06
4.54988e-05
5.35752e-06
4.52279e-05
5.739e-06
4.49361e-05
6.13312e-06
4.46228e-05
6.54253e-06
4.42871e-05
6.97009e-06
4.39281e-05
7.41924e-06
4.35452e-05
7.89404e-06
4.31369e-05
8.3987e-06
4.27011e-05
8.93523e-06
4.2236e-05
9.5066e-06
4.17397e-05
1.01188e-05
4.12098e-05
1.0777e-05
4.06441e-05
1.14867e-05
4.00397e-05
1.22536e-05
3.93936e-05
1.30859e-05
3.87023e-05
1.39899e-05
3.79618e-05
1.49771e-05
3.71678e-05
1.6052e-05
3.63149e-05
1.72339e-05
3.53976e-05
1.85168e-05
3.44087e-05
1.99405e-05
3.33417e-05
2.14604e-05
3.21863e-05
2.31786e-05
3.09354e-05
2.49199e-05
2.95741e-05
2.69868e-05
2.80961e-05
2.88003e-05
3.12567e-05
2.64762e-05
4.90027e-05
3.72327e-07
4.89719e-05
8.45361e-07
4.89229e-05
1.30772e-06
4.8856e-05
1.74563e-06
4.8771e-05
2.16452e-06
4.86679e-05
2.56654e-06
4.85466e-05
2.95611e-06
4.84071e-05
3.33692e-06
4.82491e-05
3.71246e-06
4.80727e-05
4.08582e-06
4.78774e-05
4.45981e-06
4.76629e-05
4.83708e-06
4.7429e-05
5.22013e-06
4.71751e-05
5.61141e-06
4.69007e-05
6.01341e-06
4.66051e-05
6.42869e-06
4.62877e-05
6.85999e-06
4.59475e-05
7.31029e-06
4.55836e-05
7.78313e-06
4.51952e-05
8.2824e-06
4.47811e-05
8.81277e-06
4.43394e-05
9.37699e-06
4.38679e-05
9.97805e-06
4.33648e-05
1.0622e-05
4.28277e-05
1.13141e-05
4.22543e-05
1.20601e-05
4.16418e-05
1.28661e-05
4.09871e-05
1.37406e-05
4.02867e-05
1.46903e-05
3.95365e-05
1.57272e-05
3.87322e-05
1.68563e-05
3.78684e-05
1.80976e-05
3.69397e-05
1.94456e-05
3.59387e-05
2.09415e-05
3.4859e-05
2.25402e-05
3.36903e-05
2.43473e-05
3.24252e-05
2.6185e-05
3.1049e-05
2.8363e-05
2.95549e-05
3.02944e-05
3.28936e-05
2.7918e-05
5.0741e-05
3.8531e-07
5.07098e-05
8.76576e-07
5.06602e-05
1.35738e-06
5.05924e-05
1.81338e-06
5.05064e-05
2.25056e-06
5.0402e-05
2.67087e-06
5.02793e-05
3.07881e-06
5.01382e-05
3.47809e-06
4.99784e-05
3.87224e-06
4.97998e-05
4.26441e-06
4.96021e-05
4.65747e-06
4.93851e-05
5.05413e-06
4.91483e-05
5.45696e-06
4.88912e-05
5.86851e-06
4.86132e-05
6.29134e-06
4.83138e-05
6.72811e-06
4.79921e-05
7.18165e-06
4.76474e-05
7.65506e-06
4.72785e-05
8.15198e-06
4.68847e-05
8.67622e-06
4.64648e-05
9.23266e-06
4.6017e-05
9.82483e-06
4.55391e-05