/*--------------------------------*- C++ -*----------------------------------*\
| =========                 |                                                 |
| \\      /  F ield         | OpenFOAM: The Open Source CFD Toolbox           |
|  \\    /   O peration     | Version:  2506                                  |
|   \\  /    A nd           | Website:  www.openfoam.com                      |
|    \\/     M anipulation  |                                                 |
\*---------------------------------------------------------------------------*/
FoamFile
{
    version     2.0;
    format      ascii;
    arch        "LSB;label=32;scalar=64";
    class       volScalarField;
    location    "6000";
    object      R;
}
// * * * * * * * * * * * * * * * * * * * * * * * * * * * * * * * * * * * * * //

dimensions      [0 2 -3 0 0 0 0];

internalField   nonuniform List<scalar> 
72100
(
-0.000337748
-0.000337788
-0.000342646
-0.000344478
-0.000345356
-0.000345665
-0.000345531
-0.000345117
-0.000344505
-0.000343755
-0.000342904
-0.000341986
-0.000341027
-0.000340042
-0.000339043
-0.000338031
-0.000337007
-0.000335971
-0.00033491
-0.000333809
-0.000332647
-0.000331406
-0.000330057
-0.000328576
-0.000326947
-0.000325154
-0.000322441
-0.000318689
-0.000315132
-0.000311775
-0.00030856
-0.000305524
-0.000302556
-0.000299775
-0.000296953
-0.000294351
-0.000291592
-0.000289114
-0.00028643
-0.000283935
-6.70085e-05
-6.58956e-05
-6.53486e-05
-6.47832e-05
-6.42177e-05
-6.36532e-05
-6.30908e-05
-6.25314e-05
-6.19755e-05
-6.14233e-05
-6.0875e-05
-6.03309e-05
-5.9791e-05
-5.92553e-05
-5.87238e-05
-5.81965e-05
-5.76732e-05
-5.7154e-05
-5.66387e-05
-5.61272e-05
-5.56194e-05
-5.51154e-05
-5.4615e-05
-5.41184e-05
-5.36255e-05
-5.31366e-05
-5.26518e-05
-5.21712e-05
-5.16949e-05
-5.1223e-05
-5.07555e-05
-5.02924e-05
-4.98338e-05
-4.93794e-05
-4.89297e-05
-4.84839e-05
-4.80427e-05
-4.76047e-05
-4.71723e-05
-4.67411e-05
-2.26288e-05
-2.18268e-05
-2.1754e-05
-2.16447e-05
-2.15177e-05
-2.13798e-05
-2.12345e-05
-2.10843e-05
-2.09307e-05
-2.07748e-05
-2.06172e-05
-2.04586e-05
-2.02994e-05
-2.01397e-05
-1.99796e-05
-1.98192e-05
-1.96585e-05
-1.94972e-05
-1.93354e-05
-1.91728e-05
-1.90094e-05
-1.8845e-05
-1.86797e-05
-1.85137e-05
-1.83472e-05
-1.81806e-05
-1.80141e-05
-1.78485e-05
-1.76839e-05
-1.75207e-05
-1.73591e-05
-1.71992e-05
-1.7041e-05
-1.68846e-05
-1.67302e-05
-1.65772e-05
-1.64262e-05
-1.62759e-05
-1.61289e-05
-1.59797e-05
-9.64593e-06
-9.2963e-06
-9.39198e-06
-9.46015e-06
-9.50006e-06
-9.51982e-06
-9.52523e-06
-9.51983e-06
-9.50617e-06
-9.48608e-06
-9.46088e-06
-9.43169e-06
-9.39923e-06
-9.36387e-06
-9.32573e-06
-9.28484e-06
-9.24127e-06
-9.19483e-06
-9.14516e-06
-9.09199e-06
-9.03506e-06
-8.97415e-06
-8.9091e-06
-8.84013e-06
-8.7676e-06
-8.69214e-06
-8.61441e-06
-8.53535e-06
-8.45565e-06
-8.37604e-06
-8.29691e-06
-8.21868e-06
-8.14138e-06
-8.06529e-06
-7.99048e-06
-7.91652e-06
-7.8441e-06
-7.77174e-06
-7.70195e-06
-7.62904e-06
-3.2523e-06
-4.08327e-06
-4.22634e-06
-4.36725e-06
-4.48749e-06
-4.58656e-06
-4.66965e-06
-4.73973e-06
-4.79949e-06
-4.85102e-06
-4.8959e-06
-4.93554e-06
-4.97093e-06
-5.0024e-06
-5.03004e-06
-5.05387e-06
-5.07396e-06
-5.08995e-06
-5.10116e-06
-5.10701e-06
-5.10698e-06
-5.10037e-06
-5.08674e-06
-5.06602e-06
-5.0385e-06
-5.00489e-06
-4.96613e-06
-4.92359e-06
-4.87845e-06
-4.83192e-06
-4.78484e-06
-4.73799e-06
-4.69155e-06
-4.64614e-06
-4.60166e-06
-4.558e-06
-4.51557e-06
-4.47316e-06
-4.43311e-06
-4.3895e-06
1.32411e-06
-1.51573e-06
-1.63794e-06
-1.7807e-06
-1.9214e-06
-2.04877e-06
-2.16426e-06
-2.26874e-06
-2.36417e-06
-2.45229e-06
-2.53454e-06
-2.61238e-06
-2.68694e-06
-2.75821e-06
-2.8262e-06
-2.89092e-06
-2.95252e-06
-3.0104e-06
-3.06348e-06
-3.11087e-06
-3.1517e-06
-3.18453e-06
-3.20838e-06
-3.22253e-06
-3.22689e-06
-3.22185e-06
-3.20837e-06
-3.18813e-06
-3.16272e-06
-3.13394e-06
-3.10315e-06
-3.07164e-06
-3.03991e-06
-3.0089e-06
-2.97857e-06
-2.94906e-06
-2.92062e-06
-2.89221e-06
-2.86616e-06
-2.83633e-06
5.17568e-06
-2.01028e-07
-2.7003e-07
-3.79613e-07
-5.06139e-07
-6.29577e-07
-7.46091e-07
-8.55643e-07
-9.59323e-07
-1.05822e-06
-1.15344e-06
-1.24647e-06
-1.3386e-06
-1.42911e-06
-1.518e-06
-1.60538e-06
-1.69168e-06
-1.77613e-06
-1.85727e-06
-1.9341e-06
-2.00555e-06
-2.06925e-06
-2.12372e-06
-2.16725e-06
-2.19901e-06
-2.21862e-06
-2.22662e-06
-2.22468e-06
-2.21458e-06
-2.19859e-06
-2.17863e-06
-2.15657e-06
-2.13338e-06
-2.11036e-06
-2.08768e-06
-2.0657e-06
-2.04466e-06
-2.02363e-06
-2.00506e-06
-1.98256e-06
8.48497e-06
3.56051e-07
3.5691e-07
3.2337e-07
2.71678e-07
1.92412e-07
8.90977e-08
-1.17414e-08
-1.10291e-07
-2.06995e-07
-3.02626e-07
-3.97657e-07
-4.91744e-07
-5.85863e-07
-6.80342e-07
-7.7541e-07
-8.72208e-07
-9.69763e-07
-1.0663e-06
-1.16112e-06
-1.25333e-06
-1.33957e-06
-1.4182e-06
-1.48635e-06
-1.5424e-06
-1.5847e-06
-1.61299e-06
-1.6285e-06
-1.63277e-06
-1.62837e-06
-1.6176e-06
-1.60294e-06
-1.58592e-06
-1.5682e-06
-1.55034e-06
-1.53287e-06
-1.51618e-06
-1.49937e-06
-1.48516e-06
-1.46692e-06
1.14184e-05
4.80987e-07
5.21915e-07
5.16998e-07
4.87728e-07
4.48283e-07
4.04967e-07
3.60008e-07
3.13992e-07
2.66958e-07
2.18613e-07
1.57175e-07
6.69508e-08
-2.49026e-08
-1.19099e-07
-2.161e-07
-3.14876e-07
-4.14746e-07
-5.15879e-07
-6.18415e-07
-7.22046e-07
-8.22344e-07
-9.18224e-07
-1.00561e-06
-1.08231e-06
-1.14514e-06
-1.19274e-06
-1.22551e-06
-1.24426e-06
-1.25157e-06
-1.24988e-06
-1.24221e-06
-1.23061e-06
-1.21719e-06
-1.20293e-06
-1.18857e-06
-1.17474e-06
-1.16057e-06
-1.14909e-06
-1.13351e-06
1.41671e-05
5.02098e-07
5.78942e-07
6.02601e-07
5.96721e-07
5.75471e-07
5.46131e-07
5.12929e-07
4.77258e-07
4.3949e-07
3.99578e-07
3.57582e-07
3.14147e-07
2.68428e-07
2.20008e-07
1.68288e-07
8.85539e-08
-1.14839e-08
-1.15275e-07
-2.22187e-07
-3.29255e-07
-4.35644e-07
-5.4201e-07
-6.4285e-07
-7.36039e-07
-8.16636e-07
-8.82164e-07
-9.31862e-07
-9.65366e-07
-9.84891e-07
-9.92752e-07
-9.9236e-07
-9.86185e-07
-9.7685e-07
-9.65781e-07
-9.53912e-07
-9.42252e-07
-9.29949e-07
-9.2028e-07
-9.06494e-07
1.67444e-05
4.67141e-07
5.70547e-07
6.20653e-07
6.37595e-07
6.35186e-07
6.21437e-07
6.01383e-07
5.77229e-07
5.49841e-07
5.19601e-07
4.86285e-07
4.4964e-07
4.10225e-07
3.67898e-07
3.22087e-07
2.73295e-07
2.21358e-07
1.6497e-07
9.05496e-08
-2.08047e-08
-1.34775e-07
-2.46871e-07
-3.55321e-07
-4.60624e-07
-5.5576e-07
-6.37411e-07
-7.03459e-07
-7.51892e-07
-7.84234e-07
-8.02307e-07
-8.09837e-07
-8.09433e-07
-8.04378e-07
-7.96474e-07
-7.8691e-07
-7.77121e-07
-7.66305e-07
-7.5797e-07
-7.45497e-07
1.91737e-05
4.09022e-07
5.27864e-07
6.01729e-07
6.42834e-07
6.61845e-07
6.65919e-07
6.60175e-07
6.47335e-07
6.28886e-07
6.06011e-07
5.79181e-07
5.48816e-07
5.15618e-07
4.79805e-07
4.41072e-07
3.98246e-07
3.50925e-07
2.98757e-07
2.41642e-07
1.80793e-07
1.14554e-07
2.44457e-09
-1.18232e-07
-2.3204e-07
-3.38051e-07
-4.33643e-07
-5.15199e-07
-5.78624e-07
-6.2442e-07
-6.53517e-07
-6.6978e-07
-6.75725e-07
-6.75367e-07
-6.70817e-07
-6.63598e-07
-6.55615e-07
-6.46123e-07
-6.38883e-07
-6.27467e-07
2.14806e-05
3.46545e-07
4.69915e-07
5.62841e-07
6.29278e-07
6.74655e-07
7.03053e-07
7.17846e-07
7.20921e-07
7.13865e-07
6.98784e-07
6.769e-07
6.49809e-07
6.18722e-07
5.84431e-07
5.47245e-07
5.0668e-07
4.62368e-07
4.14153e-07
3.61291e-07
3.02445e-07
2.37817e-07
1.69705e-07
9.60027e-08
-2.8189e-08
-1.48989e-07
-2.55904e-07
-3.51792e-07
-4.30091e-07
-4.90002e-07
-5.31086e-07
-5.57057e-07
-5.70163e-07
-5.75102e-07
-5.74224e-07
-5.69538e-07
-5.63427e-07
-5.5522e-07
-5.48983e-07
-5.38492e-07
2.36905e-05
2.89582e-07
4.08373e-07
5.13043e-07
6.02278e-07
6.76623e-07
7.35985e-07
7.80001e-07
8.07644e-07
8.19641e-07
8.18823e-07
8.06633e-07
7.85836e-07
7.57859e-07
7.23815e-07
6.84528e-07
6.40292e-07
5.91089e-07
5.37582e-07
4.80558e-07
4.19697e-07
3.55714e-07
2.86192e-07
2.10088e-07
1.32618e-07
3.35498e-08
-9.4812e-08
-2.03487e-07
-2.96192e-07
-3.70816e-07
-4.24992e-07
-4.6186e-07
-4.8315e-07
-4.94231e-07
-4.97459e-07
-4.95615e-07
-4.91533e-07
-4.84657e-07
-4.7942e-07
-4.69795e-07
2.58275e-05
2.42416e-07
3.50444e-07
4.58429e-07
5.63484e-07
6.63498e-07
7.54876e-07
8.32362e-07
8.90624e-07
9.29416e-07
9.52003e-07
9.61068e-07
9.57543e-07
9.42078e-07
9.1556e-07
8.78778e-07
8.32114e-07
7.76492e-07
7.13321e-07
6.43801e-07
5.6899e-07
4.91477e-07
4.11119e-07
3.28411e-07
2.43663e-07
1.577e-07
7.22691e-08
-6.10379e-08
-1.70059e-07
-2.59773e-07
-3.28192e-07
-3.77364e-07
-4.08111e-07
-4.26467e-07
-4.34386e-07
-4.3583e-07
-4.34009e-07
-4.28576e-07
-4.24401e-07
-4.15628e-07
2.79133e-05
2.05901e-07
3.00199e-07
4.04181e-07
5.1593e-07
6.33104e-07
7.50135e-07
8.56855e-07
9.47243e-07
1.02187e-06
1.07983e-06
1.09887e-06
1.11183e-06
1.11711e-06
1.11451e-06
1.10397e-06
1.08493e-06
1.04266e-06
9.75101e-07
8.93604e-07
7.98936e-07
6.94352e-07
5.8405e-07
4.75427e-07
3.71134e-07
2.70863e-07
1.72904e-07
8.2335e-08
-4.2865e-08
-1.51708e-07
-2.35431e-07
-2.98468e-07
-3.40257e-07
-3.67267e-07
-3.8071e-07
-3.86057e-07
-3.86809e-07
-3.83007e-07
-3.80008e-07
-3.72106e-07
2.99655e-05
1.78942e-07
2.59239e-07
3.54352e-07
4.64351e-07
5.88114e-07
7.19155e-07
8.47224e-07
9.41559e-07
9.94568e-07
1.04154e-06
1.08188e-06
1.11412e-06
1.13718e-06
1.15077e-06
1.15467e-06
1.1484e-06
1.13238e-06
1.10677e-06
1.07044e-06
1.02159e-06
9.59008e-07
8.61192e-07
7.08296e-07
5.55785e-07
4.14947e-07
2.92293e-07
1.80813e-07
8.43889e-08
-3.94664e-08
-1.42594e-07
-2.21113e-07
-2.75804e-07
-3.1311e-07
-3.33259e-07
-3.43326e-07
-3.47058e-07
-3.4516e-07
-3.43502e-07
-3.36524e-07
3.19957e-05
1.5973e-07
2.27342e-07
3.11217e-07
4.13324e-07
5.33889e-07
6.67034e-07
7.82317e-07
8.58309e-07
9.33171e-07
1.00233e-06
1.06188e-06
1.11283e-06
1.15476e-06
1.18719e-06
1.20963e-06
1.22153e-06
1.22119e-06
1.20742e-06
1.18009e-06
1.13769e-06
1.07877e-06
1.00357e-06
9.16361e-07
8.12393e-07
6.48367e-07
4.61414e-07
3.05681e-07
1.80884e-07
7.71229e-08
-4.50988e-08
-1.41895e-07
-2.11566e-07
-2.61119e-07
-2.89453e-07
-3.05376e-07
-3.1261e-07
-3.13007e-07
-3.12913e-07
-3.06961e-07
3.40066e-05
1.48373e-07
2.03552e-07
2.75436e-07
3.66051e-07
4.76429e-07
5.98674e-07
6.86066e-07
7.75099e-07
8.60561e-07
9.42043e-07
1.01677e-06
1.08414e-06
1.14344e-06
1.19403e-06
1.23517e-06
1.26612e-06
1.28535e-06
1.2912e-06
1.28272e-06
1.25817e-06
1.21551e-06
1.15102e-06
1.06201e-06
9.51605e-07
8.27598e-07
6.93179e-07
5.02232e-07
3.11098e-07
1.6952e-07
6.40306e-08
-5.78044e-08
-1.44727e-07
-2.08758e-07
-2.47072e-07
-2.70355e-07
-2.81772e-07
-2.85007e-07
-2.86767e-07
-2.81997e-07
3.60089e-05
1.31792e-07
1.89436e-07
2.49058e-07
3.27025e-07
4.23066e-07
5.07489e-07
5.975e-07
6.87708e-07
7.77379e-07
8.65835e-07
9.50777e-07
1.03073e-06
1.10447e-06
1.17108e-06
1.22953e-06
1.27887e-06
1.31767e-06
1.34404e-06
1.35639e-06
1.35264e-06
1.33026e-06
1.28531e-06
1.21352e-06
1.11552e-06
9.88658e-07
8.38491e-07
6.81392e-07
5.19666e-07
3.05583e-07
1.50517e-07
3.92127e-08
-7.26441e-08
-1.53663e-07
-2.04134e-07
-2.36564e-07
-2.53113e-07
-2.59933e-07
-2.63921e-07
-2.60542e-07
3.8013e-05
1.17506e-07
1.66425e-07
2.21727e-07
2.8499e-07
3.55227e-07
4.34054e-07
5.16411e-07
6.01999e-07
6.90328e-07
7.80447e-07
8.70338e-07
9.58214e-07
1.04245e-06
1.1218e-06
1.19502e-06
1.26089e-06
1.31798e-06
1.36429e-06
1.39782e-06
1.41613e-06
1.41624e-06
1.39411e-06
1.34454e-06
1.26568e-06
1.15374e-06
1.01109e-06
8.41332e-07
6.56674e-07
4.81959e-07
2.87376e-07
1.23567e-07
7.70107e-09
-9.35371e-08
-1.58688e-07
-2.02352e-07
-2.25364e-07
-2.36748e-07
-2.43437e-07
-2.41737e-07
4.00249e-05
1.05872e-07
1.49464e-07
1.95169e-07
2.47214e-07
3.07299e-07
3.73534e-07
4.45318e-07
5.22643e-07
6.05304e-07
6.92413e-07
7.82303e-07
8.73257e-07
9.63495e-07
1.05159e-06
1.13611e-06
1.21566e-06
1.28874e-06
1.35333e-06
1.40716e-06
1.44749e-06
1.471e-06
1.47346e-06
1.44907e-06
1.39401e-06
1.30337e-06
1.17657e-06
1.01474e-06
8.27344e-07
6.23916e-07
4.34312e-07
2.53465e-07
9.50839e-08
-2.61314e-08
-1.08749e-07
-1.66046e-07
-1.97262e-07
-2.14519e-07
-2.24502e-07
-2.24877e-07
4.20507e-05
9.57603e-08
1.35538e-07
1.76625e-07
2.20926e-07
2.70096e-07
3.24521e-07
3.8505e-07
4.52275e-07
5.26523e-07
6.0711e-07
6.92892e-07
7.82484e-07
8.74237e-07
9.66736e-07
1.05854e-06
1.14816e-06
1.23408e-06
1.3143e-06
1.38647e-06
1.44768e-06
1.4943e-06
1.52192e-06
1.52435e-06
1.49625e-06
1.43145e-06
1.32682e-06
1.18112e-06
1.00048e-06
7.92628e-07
5.78118e-07
3.74245e-07
1.97843e-07
5.22088e-08
-5.22727e-08
-1.25915e-07
-1.67459e-07
-1.92327e-07
-2.06357e-07
-2.09344e-07
4.40961e-05
8.72459e-08
1.23519e-07
1.61221e-07
2.00043e-07
2.40634e-07
2.84846e-07
3.34774e-07
3.91636e-07
4.56337e-07
5.28254e-07
6.07021e-07
6.91682e-07
7.80952e-07
8.73667e-07
9.6854e-07
1.06417e-06
1.15914e-06
1.25157e-06
1.33918e-06
1.41905e-06
1.48738e-06
1.53963e-06
1.56934e-06
1.57006e-06
1.53438e-06
1.45684e-06
1.33382e-06
1.168e-06
9.65148e-07
7.42327e-07
5.17789e-07
3.13022e-07
1.36639e-07
1.40274e-08
-8.00848e-08
-1.34546e-07
-1.69142e-07
-1.88235e-07
-1.94569e-07
4.61649e-05
8.02373e-08
1.13263e-07
1.48214e-07
1.82667e-07
2.1622e-07
2.51976e-07
2.92657e-07
3.40079e-07
3.95482e-07
4.57819e-07
5.28009e-07
6.05292e-07
6.88963e-07
7.7828e-07
8.72277e-07
9.69809e-07
1.06969e-06
1.17033e-06
1.26969e-06
1.36503e-06
1.45262e-06
1.52785e-06
1.58418e-06
1.61437e-06
1.60986e-06
1.56317e-06
1.46821e-06
1.32424e-06
1.13455e-06
9.12522e-07
6.75913e-07
4.4723e-07
2.45159e-07
8.97257e-08
-2.65551e-08
-9.69779e-08
-1.43759e-07
-1.69331e-07
-1.79986e-07
4.82615e-05
7.45428e-08
1.04576e-07
1.37087e-07
1.67835e-07
1.97027e-07
2.27226e-07
2.60891e-07
2.99085e-07
3.43556e-07
3.96243e-07
4.57652e-07
5.26225e-07
6.02265e-07
6.85475e-07
7.75285e-07
8.70934e-07
9.71641e-07
1.07624e-06
1.18312e-06
1.28996e-06
1.39333e-06
1.48881e-06
1.56993e-06
1.629e-06
1.65656e-06
1.6433e-06
1.58074e-06
1.46471e-06
1.29559e-06
1.08282e-06
8.42567e-07
5.97201e-07
3.65459e-07
1.75576e-07
3.94078e-08
-5.29567e-08
-1.14749e-07
-1.48768e-07
-1.65e-07
5.03887e-05
6.99088e-08
9.72162e-08
1.27378e-07
1.5393e-07
1.75351e-07
1.99818e-07
2.28712e-07
2.63845e-07
3.05849e-07
3.4709e-07
3.96612e-07
4.5589e-07
5.23453e-07
5.98897e-07
6.82102e-07
7.72757e-07
8.70608e-07
9.75042e-07
1.08503e-06
1.19889e-06
1.31376e-06
1.4257e-06
1.52858e-06
1.61468e-06
1.67389e-06
1.69544e-06
1.66852e-06
1.58561e-06
1.44379e-06
1.2483e-06
1.01279e-06
7.58452e-07
5.0508e-07
2.91647e-07
1.10517e-07
7.43197e-11
-8.05048e-08
-1.25437e-07
-1.4895e-07
5.25513e-05
6.60581e-08
9.09098e-08
1.1873e-07
1.39954e-07
1.59106e-07
1.8014e-07
2.03759e-07
2.311e-07
2.63708e-07
3.04335e-07
3.518e-07
3.97591e-07
4.53925e-07
5.20883e-07
5.96043e-07
6.79471e-07
7.71513e-07
8.72153e-07
9.81041e-07
1.09727e-06
1.21883e-06
1.34258e-06
1.4631e-06
1.57303e-06
1.6621e-06
1.71845e-06
1.72923e-06
1.68362e-06
1.5751e-06
1.40448e-06
1.18203e-06
9.26763e-07
6.58888e-07
4.14278e-07
2.06311e-07
6.58004e-08
-3.92403e-08
-9.80108e-08
-1.31018e-07
5.47506e-05
6.27579e-08
8.5391e-08
1.1091e-07
1.2847e-07
1.45579e-07
1.63991e-07
1.84237e-07
2.07117e-07
2.33764e-07
2.64922e-07
3.02894e-07
3.51046e-07
3.99919e-07
4.52945e-07
5.19189e-07
5.94064e-07
6.78273e-07
7.72276e-07
8.76413e-07
9.90648e-07
1.11397e-06
1.24434e-06
1.37742e-06
1.50672e-06
1.62236e-06
1.71196e-06
1.76105e-06
1.75577e-06
1.68574e-06
1.54707e-06
1.3459e-06
1.09806e-06
8.23381e-07
5.56933e-07
3.20539e-07
1.35785e-07
1.22324e-08
-6.50688e-08
-1.10077e-07
5.69917e-05
5.98264e-08
8.04178e-08
1.03976e-07
1.18562e-07
1.33988e-07
1.50273e-07
1.6789e-07
1.87445e-07
2.09886e-07
2.35874e-07
2.66609e-07
3.03105e-07
3.49127e-07
4.03268e-07
4.53089e-07
5.18347e-07
5.9366e-07
6.79112e-07
7.75686e-07
8.842e-07
1.00469e-06
1.13639e-06
1.27637e-06
1.41951e-06
1.55697e-06
1.67659e-06
1.76292e-06
1.7995e-06
1.7721e-06
1.67184e-06
1.49997e-06
1.26817e-06
9.9498e-07
7.13527e-07
4.47257e-07
2.42824e-07
7.55908e-08
-2.48645e-08
-8.478e-08
5.92753e-05
5.71329e-08
7.58002e-08
9.72117e-08
1.10044e-07
1.23986e-07
1.38516e-07
1.53995e-07
1.70881e-07
1.89944e-07
2.11941e-07
2.37771e-07
2.6833e-07
3.04555e-07
3.49302e-07
4.07056e-07
4.5434e-07
5.1943e-07
5.95205e-07
6.82379e-07
7.82375e-07
8.96174e-07
1.02428e-06
1.16538e-06
1.31616e-06
1.46945e-06
1.61416e-06
1.73476e-06
1.81294e-06
1.83088e-06
1.77458e-06
1.63967e-06
1.43269e-06
1.16982e-06
8.81205e-07
5.93133e-07
3.5126e-07
1.51419e-07
2.77983e-08
-5.3641e-08
6.16052e-05
5.45631e-08
7.14278e-08
9.10757e-08
1.02662e-07
1.15298e-07
1.28376e-07
1.42122e-07
1.56859e-07
1.73185e-07
1.91843e-07
2.13616e-07
2.3952e-07
2.70235e-07
3.07052e-07
3.51354e-07
4.09983e-07
4.57079e-07
5.22047e-07
5.98881e-07
6.88609e-07
7.92854e-07
9.13261e-07
1.05013e-06
1.20217e-06
1.36446e-06
1.52784e-06
1.67776e-06
1.79514e-06
1.85926e-06
1.85114e-06
1.76027e-06
1.58692e-06
1.34362e-06
1.05668e-06
7.53823e-07
4.82688e-07
2.55176e-07
8.91536e-08
-1.42006e-08
6.39843e-05
5.20879e-08
6.72648e-08
8.55058e-08
9.60805e-08
1.07645e-07
1.19542e-07
1.31897e-07
1.44926e-07
1.59075e-07
1.74992e-07
1.93352e-07
2.15174e-07
2.41279e-07
2.72776e-07
3.10639e-07
3.55441e-07
4.15387e-07
4.61076e-07
5.2659e-07
6.05227e-07
6.98151e-07
8.07828e-07
9.35997e-07
1.08338e-06
1.2476e-06
1.42216e-06
1.59463e-06
1.74652e-06
1.85534e-06
1.89777e-06
1.85688e-06
1.72572e-06
1.51164e-06
1.23605e-06
9.26736e-07
6.31469e-07
3.67091e-07
1.7195e-07
3.79859e-08
6.64138e-05
4.96815e-08
6.32691e-08
8.02799e-08
9.00585e-08
1.00784e-07
1.11733e-07
1.22979e-07
1.34659e-07
1.47105e-07
1.60843e-07
1.76423e-07
1.94766e-07
2.16737e-07
2.43474e-07
2.76203e-07
3.15372e-07
3.61489e-07
4.19971e-07
4.66879e-07
5.336e-07
6.14336e-07
7.11417e-07
8.27619e-07
9.65406e-07
1.12491e-06
1.30275e-06
1.48962e-06
1.66912e-06
1.81855e-06
1.91144e-06
1.92475e-06
1.84363e-06
1.66856e-06
1.41477e-06
1.10857e-06
7.96101e-07
5.01542e-07
2.72541e-07
1.01507e-07
6.88969e-05
4.73237e-08
5.93721e-08
7.54602e-08
8.45322e-08
9.45468e-08
1.0471e-07
1.15057e-07
1.25668e-07
1.36789e-07
1.48835e-07
1.62226e-07
1.77741e-07
1.96169e-07
2.18611e-07
2.46394e-07
2.80637e-07
3.21619e-07
3.69983e-07
4.24807e-07
4.74976e-07
5.42622e-07
6.26248e-07
7.28539e-07
8.53126e-07
1.00232e-06
1.17591e-06
1.36837e-06
1.56675e-06
1.75005e-06
1.8904e-06
1.95969e-06
1.93501e-06
1.80848e-06
1.58754e-06
1.29517e-06
9.7425e-07
6.54851e-07
3.87886e-07
1.8574e-07
7.14358e-05
4.50098e-08
5.54946e-08
7.03315e-08
7.95051e-08
8.88099e-08
9.82662e-08
1.07855e-07
1.17604e-07
1.2769e-07
1.38434e-07
1.5014e-07
1.63445e-07
1.78996e-07
1.97781e-07
2.21041e-07
2.50192e-07
2.86479e-07
3.29433e-07
3.81257e-07
4.30334e-07
4.83484e-07
5.53422e-07
6.41051e-07
7.50311e-07
8.851e-07
1.048e-06
1.23743e-06
1.44492e-06
1.653e-06
1.83467e-06
1.95857e-06
1.99445e-06
1.92503e-06
1.74824e-06
1.48145e-06
1.16258e-06
8.25745e-07
5.25629e-07
2.84358e-07
7.4033e-05
4.27249e-08
5.16374e-08
6.5349e-08
7.49225e-08
8.34967e-08
9.22797e-08
1.01202e-07
1.10237e-07
1.19499e-07
1.29236e-07
1.39656e-07
1.51272e-07
1.64582e-07
1.80414e-07
1.99835e-07
2.24207e-07
2.55264e-07
2.93892e-07
3.39123e-07
3.95917e-07
4.36609e-07
4.93122e-07
5.66272e-07
6.5942e-07
7.77353e-07
9.2475e-07
1.10362e-06
1.31037e-06
1.53255e-06
1.74645e-06
1.92e-06
2.01736e-06
2.0117e-06
1.88997e-06
1.66129e-06
1.35664e-06
1.01185e-06
6.83717e-07
4.04332e-07
7.66909e-05
4.05942e-08
4.79999e-08
6.06265e-08
7.07228e-08
7.86041e-08
8.67651e-08
9.50966e-08
1.03525e-07
1.12115e-07
1.21058e-07
1.30488e-07
1.4082e-07
1.52418e-07
1.65949e-07
1.82282e-07
2.02571e-07
2.28526e-07
2.6191e-07
3.03257e-07
3.50943e-07
4.04147e-07
4.45594e-07
5.04353e-07
5.81641e-07
6.81861e-07
8.10834e-07
9.73371e-07
1.17047e-06
1.39554e-06
1.63028e-06
1.84492e-06
2.00073e-06
2.06246e-06
2.00533e-06
1.82756e-06
1.55076e-06
1.20959e-06
8.6116e-07
5.45879e-07
7.9414e-05
3.87773e-08
4.47421e-08
5.6251e-08
6.6808e-08
7.41012e-08
8.17378e-08
8.95609e-08
9.74692e-08
1.05497e-07
1.13798e-07
1.22451e-07
1.31799e-07
1.42098e-07
1.53873e-07
1.67809e-07
1.8482e-07
2.06361e-07
2.34318e-07
2.70561e-07
3.14851e-07
3.66176e-07
4.0899e-07
4.54435e-07
5.17079e-07
6.00026e-07
7.09468e-07
8.52009e-07
1.03241e-06
1.24986e-06
1.49288e-06
1.73689e-06
1.94384e-06
2.07254e-06
2.08691e-06
1.9722e-06
1.73793e-06
1.41401e-06
1.0557e-06
7.09594e-07
8.21994e-05
3.7249e-08
4.18216e-08
5.22086e-08
6.31138e-08
6.99536e-08
7.71645e-08
8.45489e-08
9.20038e-08
9.95512e-08
1.0732e-07
1.15353e-07
1.23936e-07
1.33246e-07
1.43696e-07
1.55813e-07
1.70293e-07
1.88296e-07
2.11444e-07
2.41948e-07
2.8166e-07
3.28284e-07
3.84194e-07
4.15894e-07
4.64963e-07
5.31943e-07
6.22289e-07
7.43305e-07
9.02311e-07
1.10345e-06
1.34244e-06
1.60211e-06
1.84885e-06
2.03927e-06
2.12808e-06
2.08664e-06
1.9098e-06
1.61858e-06
1.26351e-06
8.94775e-07
8.50515e-05
3.5968e-08
3.92169e-08
4.84867e-08
5.9523e-08
6.62539e-08
7.30476e-08
8.00205e-08
8.70655e-08
9.41926e-08
1.01512e-07
1.09036e-07
1.17013e-07
1.25561e-07
1.35007e-07
1.45756e-07
1.58325e-07
1.73614e-07
1.92889e-07
2.18104e-07
2.51919e-07
2.94996e-07
3.43899e-07
3.86921e-07
4.23833e-07
4.76771e-07
5.49562e-07
6.49341e-07
7.84722e-07
9.63438e-07
1.18771e-06
1.44884e-06
1.72093e-06
1.96291e-06
2.12399e-06
2.16251e-06
2.05694e-06
1.81508e-06
1.47898e-06
1.09912e-06
8.79745e-05
3.49847e-08
3.6976e-08
4.50916e-08
5.55043e-08
6.30457e-08
6.93703e-08
7.59302e-08
8.2594e-08
8.93471e-08
9.62787e-08
1.03378e-07
1.10864e-07
1.18813e-07
1.2749e-07
1.37207e-07
1.48343e-07
1.61592e-07
1.77904e-07
1.9881e-07
2.26781e-07
2.64393e-07
3.10409e-07
3.64426e-07
3.9252e-07
4.33084e-07
4.90471e-07
5.70649e-07
6.8236e-07
8.35374e-07
1.03695e-06
1.28655e-06
1.56805e-06
1.84713e-06
2.07257e-06
2.1927e-06
2.16944e-06
1.99368e-06
1.69451e-06
1.31846e-06
9.09684e-05
3.42171e-08
3.50845e-08
4.20617e-08
5.19702e-08
6.0171e-08
6.60437e-08
7.22168e-08
7.85333e-08
8.49526e-08
9.15455e-08
9.82822e-08
1.05361e-07
1.12829e-07
1.20905e-07
1.29833e-07
1.39892e-07
1.51617e-07
1.65713e-07
1.83326e-07
2.06399e-07
2.3777e-07
2.79606e-07
3.27045e-07
3.6874e-07
3.99011e-07
4.43517e-07
5.06542e-07
5.96185e-07
7.22843e-07
8.96933e-07
1.12467e-06
1.4001e-06
1.69904e-06
1.97541e-06
2.17255e-06
2.23797e-06
2.1434e-06
1.90044e-06
1.54645e-06
9.40362e-05
3.3668e-08
3.35083e-08
3.94139e-08
4.86203e-08
5.74332e-08
6.29622e-08
6.88225e-08
7.48379e-08
8.09607e-08
8.72538e-08
9.36756e-08
1.0041e-07
1.07481e-07
1.15076e-07
1.23391e-07
1.32627e-07
1.43208e-07
1.55652e-07
1.70814e-07
1.90137e-07
2.15904e-07
2.51678e-07
2.96455e-07
3.48466e-07
3.73241e-07
4.0685e-07
4.55474e-07
5.2572e-07
6.27439e-07
7.72405e-07
9.71453e-07
1.22766e-06
1.52853e-06
1.83806e-06
2.10098e-06
2.25506e-06
2.253e-06
2.08525e-06
1.77424e-06
9.71777e-05
3.3323e-08
3.2202e-08
3.71302e-08
4.55441e-08
5.48792e-08
6.01351e-08
6.57339e-08
7.14818e-08
7.73359e-08
8.33585e-08
8.9501e-08
9.59368e-08
1.02673e-07
1.09874e-07
1.17699e-07
1.26298e-07
1.36006e-07
1.4721e-07
1.60552e-07
1.77104e-07
1.98489e-07
2.27988e-07
2.68179e-07
3.14392e-07
3.52907e-07
3.78164e-07
4.15439e-07
4.69494e-07
5.49064e-07
6.65854e-07
8.33082e-07
1.06056e-06
1.34706e-06
1.66978e-06
1.98132e-06
2.21652e-06
2.31226e-06
2.23623e-06
1.99047e-06
0.000100398
3.3198e-08
3.11685e-08
3.51902e-08
4.27577e-08
5.20603e-08
5.76608e-08
6.29725e-08
6.84525e-08
7.40508e-08
7.98234e-08
8.57136e-08
9.18856e-08
9.83335e-08
1.05203e-07
1.1263e-07
1.2072e-07
1.29751e-07
1.40011e-07
1.51986e-07
1.66491e-07
1.84659e-07
2.08917e-07
2.42919e-07
2.86329e-07
3.36841e-07
3.56099e-07
3.84382e-07
4.25448e-07
4.86374e-07
5.77754e-07
7.13269e-07
9.06768e-07
1.16613e-06
1.48247e-06
1.8214e-06
2.12265e-06
2.31364e-06
2.3407e-06
2.18159e-06
0.000103696
3.3283e-08
3.03931e-08
3.35653e-08
4.027e-08
4.92532e-08
5.55318e-08
6.05254e-08
6.57279e-08
7.10776e-08
7.66165e-08
8.22763e-08
8.82121e-08
9.44073e-08
1.00994e-07
1.08086e-07
1.15763e-07
1.24256e-07
1.33782e-07
1.44714e-07
1.57685e-07
1.73509e-07
1.93872e-07
2.21821e-07
2.6059e-07
3.05227e-07
3.38763e-07
3.60128e-07
3.91321e-07
4.37296e-07
5.07041e-07
6.13345e-07
7.71579e-07
9.95672e-07
1.28906e-06
1.63288e-06
1.97897e-06
2.25388e-06
2.38774e-06
2.33294e-06
0.000107076
3.34769e-08
2.98115e-08
3.22179e-08
3.80986e-08
4.67103e-08
5.36077e-08
5.83128e-08
6.32616e-08
6.83833e-08
7.37079e-08
7.91579e-08
8.48808e-08
9.08517e-08
9.7191e-08
1.03999e-07
1.11331e-07
1.19386e-07
1.2833e-07
1.3845e-07
1.50247e-07
1.64323e-07
1.81904e-07
2.05012e-07
2.37783e-07
2.79567e-07
3.25161e-07
3.41323e-07
3.65048e-07
3.99466e-07
4.51669e-07
5.32708e-07
6.57543e-07
8.43016e-07
1.10165e-06
1.42969e-06
1.79593e-06
2.13524e-06
2.37007e-06
2.43035e-06
0.000110539
3.37837e-08
2.94297e-08
3.11248e-08
3.62413e-08
4.43494e-08
5.17665e-08
5.62586e-08
6.10108e-08
6.59386e-08
7.10724e-08
7.63326e-08
8.18631e-08
8.76333e-08
9.37545e-08
1.00316e-07
1.07355e-07
1.15046e-07
1.23515e-07
1.3299e-07
1.43872e-07
1.56607e-07
1.7216e-07
1.91783e-07
2.18831e-07
2.56247e-07
2.99568e-07
3.26753e-07
3.44709e-07
3.70542e-07
4.09138e-07
4.6945e-07
5.64803e-07
7.12364e-07
9.29918e-07
1.22599e-06
1.58773e-06
1.9659e-06
2.28585e-06
2.46224e-06
0.000114089
3.41857e-08
2.92375e-08
3.02666e-08
3.468e-08
4.22265e-08
5.00862e-08
5.43957e-08
5.89777e-08
6.37331e-08
6.8694e-08
7.37815e-08
7.9137e-08
8.4726e-08
9.06525e-08
9.69966e-08
1.03783e-07
1.11165e-07
1.19241e-07
1.28191e-07
1.38344e-07
1.50027e-07
1.64034e-07
1.81199e-07
2.03752e-07
2.3561e-07
2.75672e-07
3.14821e-07
3.28825e-07
3.48495e-07
3.76912e-07
4.20968e-07
4.91756e-07
6.04984e-07
7.80249e-07
1.03414e-06
1.37022e-06
1.75931e-06
2.13988e-06
2.42198e-06
0.000117723
3.46874e-08
2.92061e-08
2.96231e-08
3.33933e-08
4.03436e-08
4.81221e-08
5.28092e-08
5.71932e-08
6.17714e-08
6.65659e-08
7.14915e-08
7.66855e-08
8.21093e-08
8.78602e-08
9.4011e-08
1.00576e-07
1.07691e-07
1.15433e-07
1.23948e-07
1.33508e-07
1.44352e-07
1.57138e-07
1.72493e-07
1.91855e-07
2.18375e-07
2.54592e-07
2.96791e-07
3.16699e-07
3.31622e-07
3.52624e-07
3.84457e-07
4.35768e-07
5.19847e-07
6.55532e-07
8.63185e-07
1.15848e-06
1.53227e-06
1.94356e-06
2.30972e-06
0.000121447
3.53308e-08
2.93518e-08
2.91864e-08
3.23595e-08
3.87074e-08
4.63021e-08
5.14774e-08
5.5655e-08
6.00501e-08
6.46793e-08
6.945e-08
7.44929e-08
7.97647e-08
8.53562e-08
9.13339e-08
9.77023e-08
1.04585e-07
1.1204e-07
1.20186e-07
1.29254e-07
1.39416e-07
1.51219e-07
1.65158e-07
1.82279e-07
2.04566e-07
2.35896e-07
2.74225e-07
3.06216e-07
3.18155e-07
3.3421e-07
3.57263e-07
3.93806e-07
4.54436e-07
5.55697e-07
7.18241e-07
9.64681e-07
1.30235e-06
1.71357e-06
2.13337e-06
0.000125261
3.61435e-08
2.96873e-08
2.89499e-08
3.15575e-08
3.73288e-08
4.46454e-08
5.03073e-08
5.43103e-08
5.85372e-08
6.30111e-08
6.76369e-08
7.25401e-08
7.7673e-08
8.31203e-08
8.89425e-08
9.51363e-08
1.01815e-07
1.0902e-07
1.16849e-07
1.25502e-07
1.351e-07
1.46102e-07
1.58889e-07
1.74338e-07
1.93607e-07
2.20045e-07
2.55175e-07
2.96537e-07
3.07366e-07
3.20087e-07
3.37058e-07
3.62872e-07
4.05518e-07
4.78583e-07
6.00719e-07
7.96815e-07
1.08511e-06
1.46929e-06
1.90804e-06
0.000129164
3.70822e-08
3.01689e-08
2.88943e-08
3.09685e-08
3.62e-08
4.3151e-08
4.92437e-08
5.30975e-08
5.71846e-08
6.1526e-08
6.6025e-08
7.08039e-08
7.58128e-08
8.11312e-08
8.68149e-08
9.28541e-08
9.93517e-08
1.06339e-07
1.13894e-07
1.22191e-07
1.31313e-07
1.41656e-07
1.53494e-07
1.67601e-07
1.84745e-07
2.07153e-07
2.38195e-07
2.74975e-07
2.9888e-07
3.09009e-07
3.21935e-07
3.40287e-07
3.6974e-07
4.20871e-07
5.09179e-07
6.5844e-07
8.92006e-07
1.2296e-06
1.6539e-06
0.000133163
3.80901e-08
3.07807e-08
2.90067e-08
3.0576e-08
3.53017e-08
4.18666e-08
4.82669e-08
5.19891e-08
5.5964e-08
6.01973e-08
6.45898e-08
6.92617e-08
7.41626e-08
7.93679e-08
8.49298e-08
9.08329e-08
9.71719e-08
1.03968e-07
1.11285e-07
1.19275e-07
1.27991e-07
1.37779e-07
1.48833e-07
1.61822e-07
1.77368e-07
1.9683e-07
2.23469e-07
2.57622e-07
2.91911e-07
3.00277e-07
3.10538e-07
3.23858e-07
3.44017e-07
3.78855e-07
4.40407e-07
5.4937e-07
7.29538e-07
1.00998e-06
1.39282e-06
0.000137259
3.91313e-08
3.15273e-08
2.92764e-08
3.03629e-08
3.46135e-08
4.07939e-08
4.74184e-08
5.10168e-08
5.48877e-08
5.90232e-08
6.33214e-08
6.78995e-08
7.27062e-08
7.78129e-08
8.32683e-08
8.90526e-08
9.52528e-08
1.01882e-07
1.0899e-07
1.16713e-07
1.2508e-07
1.34397e-07
1.44798e-07
1.56847e-07
1.71093e-07
1.88462e-07
2.11235e-07
2.42098e-07
2.78141e-07
2.93876e-07
3.0195e-07
3.11874e-07
3.25733e-07
3.48984e-07
3.90401e-07
4.66827e-07
5.99462e-07
8.20633e-07
1.14462e-06
0.00014145
4.02224e-08
3.23667e-08
2.96748e-08
3.03101e-08
3.41177e-08
3.99132e-08
4.65059e-08
5.02343e-08
5.39858e-08
5.80177e-08
6.22234e-08
6.67139e-08
7.14354e-08
7.64545e-08
8.18163e-08
8.74965e-08
9.35752e-08
1.00058e-07
1.06985e-07
1.14475e-07
1.2254e-07
1.31452e-07
1.41301e-07
1.52565e-07
1.65705e-07
1.81502e-07
2.01322e-07
2.28346e-07
2.61457e-07
2.88231e-07
2.95071e-07
3.03002e-07
3.1281e-07
3.2817e-07
3.55113e-07
4.06657e-07
4.99934e-07
6.66114e-07
9.24211e-07
0.000145738
4.13833e-08
3.32681e-08
3.01782e-08
3.04019e-08
3.37989e-08
3.92161e-08
4.56604e-08
4.96348e-08
5.32631e-08
5.71878e-08
6.13003e-08
6.57056e-08
7.03473e-08
7.52865e-08
8.05644e-08
8.61526e-08
9.21245e-08
9.84791e-08
1.05247e-07
1.12534e-07
1.20335e-07
1.28896e-07
1.38273e-07
1.48878e-07
1.61077e-07
1.75589e-07
1.93277e-07
2.16631e-07
2.47214e-07
2.83011e-07
2.89516e-07
2.96319e-07
3.03658e-07
3.13897e-07
3.30898e-07
3.64324e-07
4.26915e-07
5.46183e-07
7.40104e-07
0.000150125
4.25516e-08
3.42393e-08
3.07888e-08
3.06338e-08
3.36462e-08
3.87057e-08
4.49666e-08
4.91637e-08
5.26901e-08
5.65189e-08
6.05449e-08
6.48703e-08
6.94378e-08
7.43036e-08
7.95058e-08
8.5012e-08
9.08892e-08
9.71309e-08
1.03759e-07
1.10867e-07
1.18438e-07
1.26693e-07
1.35663e-07
1.45708e-07
1.57113e-07
1.70522e-07
1.86619e-07
2.0698e-07
2.34424e-07
2.6667e-07
2.85435e-07
2.912e-07
2.97099e-07
3.04212e-07
3.14719e-07
3.35562e-07
3.75461e-07
4.57324e-07
5.94692e-07
0.000154616
4.36424e-08
3.52838e-08
3.15198e-08
3.10099e-08
3.36544e-08
3.83798e-08
4.44043e-08
4.87918e-08
5.22353e-08
5.59855e-08
5.99387e-08
6.41946e-08
6.86967e-08
7.34975e-08
7.86324e-08
8.40661e-08
8.98597e-08
9.60017e-08
1.02506e-07
1.09457e-07
1.16826e-07
1.24814e-07
1.33428e-07
1.42993e-07
1.53727e-07
1.66183e-07
1.80996e-07
1.99127e-07
2.23206e-07
2.53463e-07
2.82092e-07
2.87228e-07
2.92369e-07
2.97693e-07
3.04196e-07
3.16721e-07
3.40653e-07
3.94351e-07
4.85675e-07
0.000159205
4.47757e-08