/*--------------------------------*- C++ -*----------------------------------*\
| =========                 |                                                 |
| \\      /  F ield         | OpenFOAM: The Open Source CFD Toolbox           |
|  \\    /   O peration     | Version:  2506                                  |
|   \\  /    A nd           | Website:  www.openfoam.com                      |
|    \\/     M anipulation  |                                                 |
\*---------------------------------------------------------------------------*/
FoamFile
{
    version     2.0;
    format      ascii;
    arch        "LSB;label=32;scalar=64";
    class       volTensorField;
    location    "6000";
    object      grad(U);
}
// * * * * * * * * * * * * * * * * * * * * * * * * * * * * * * * * * * * * * //

dimensions      [0 0 -1 0 0 0 0];

internalField   nonuniform List<tensor> 
72100
(
(27.2306 -0.00769838 0 20299.3 -3.24798 0 0 0 0)
(0.11011 0.0097071 0 19648.6 -0.933796 0 0 0 0)
(-4.81509 0.00558664 0 19525.1 1.91113 0 0 0 0)
(-5.15681 0.000243741 0 19106.7 2.27889 0 0 0 0)
(-1.7858 -0.00023802 0 18890.5 2.22821 0 0 0 0)
(-1.7043 -0.000284848 0 18691.3 2.13903 0 0 0 0)
(-1.66212 -0.000169052 0 18499 2.07909 0 0 0 0)
(-1.6326 -6.26786e-05 0 18312.4 2.0493 0 0 0 0)
(-1.63221 -4.21194e-05 0 18130.4 2.04634 0 0 0 0)
(-1.64591 3.96091e-05 0 17947.9 2.03171 0 0 0 0)
(-1.64815 0.000105943 0 17765.1 2.06475 0 0 0 0)
(-1.6549 2.08991e-05 0 17584 2.08431 0 0 0 0)
(-1.63857 -4.79872e-05 0 17404.4 2.07184 0 0 0 0)
(-1.70203 0.000487366 0 17230.8 2.06445 0 0 0 0)
(-1.87398 0.00100602 0 17040.4 2.34385 0 0 0 0)
(-2.05602 0.000858159 0 16831.1 2.60659 0 0 0 0)
(-2.20113 0.000235122 0 16605.2 2.78117 0 0 0 0)
(-2.2278 0.000634919 0 16375.3 2.71514 0 0 0 0)
(-2.15742 0.0008594 0 16148.5 2.72821 0 0 0 0)
(-2.20745 5.8422e-05 0 15929.3 2.87365 0 0 0 0)
(-2.49263 0.00184597 0 15697.2 3.10401 0 0 0 0)
(-2.65695 0.0013056 0 15432 3.45858 0 0 0 0)
(-2.82563 0.000336541 0 15165 3.61299 0 0 0 0)
(-3.12141 0.0021908 0 14870.4 3.90238 0 0 0 0)
(-3.30187 0.00045032 0 14551.5 4.329 0 0 0 0)
(-3.51575 0.00145079 0 14223.9 4.40958 0 0 0 0)
(-3.33751 0.000764672 0 13877.1 4.70671 0 0 0 0)
(-3.83585 0.00140816 0 13548.2 4.80326 0 0 0 0)
(-4.27913 0.00139308 0 13150.3 5.26268 0 0 0 0)
(-4.41743 0.00215966 0 12774.1 5.50088 0 0 0 0)
(-4.70572 0.00158622 0 12327.3 6.13785 0 0 0 0)
(-5.08256 0.00285798 0 11899.3 6.27034 0 0 0 0)
(-5.42115 0.00238504 0 11398.1 7.10502 0 0 0 0)
(-5.82748 0.00190317 0 10906.7 7.34916 0 0 0 0)
(-6.33823 0.00337911 0 10343 8.09405 0 0 0 0)
(-6.63562 0.00217045 0 9785.08 8.50437 0 0 0 0)
(-7.41393 0.00611418 0 9161.01 9.4026 0 0 0 0)
(-7.78463 0.00348565 0 8494.34 10.1702 0 0 0 0)
(-9.43485 0.0499851 0 7796.06 11.3015 0 0 0 0)
(-17.2039 0.278217 0 6894.38 18.4944 0 0 0 0)
(74.1145 -0.0600991 0 17825.9 -5.30783 0 0 0 0)
(-12.644 0.0738517 0 18965.1 -1.82995 0 0 0 0)
(-3.9646 0.0467279 0 18867.4 4.17081 0 0 0 0)
(-5.19045 0.00496163 0 18890 5.13487 0 0 0 0)
(-5.09946 -0.00209284 0 18699.2 5.03644 0 0 0 0)
(-4.84546 -0.00221694 0 18521.5 4.82619 0 0 0 0)
(-4.73444 -0.00134938 0 18349.6 4.70307 0 0 0 0)
(-4.64918 -0.000495448 0 18184 4.62043 0 0 0 0)
(-4.63519 -0.000262289 0 18023 4.63186 0 0 0 0)
(-4.6922 0.000284803 0 17860.7 4.60466 0 0 0 0)
(-4.72609 0.000817681 0 17698.6 4.67509 0 0 0 0)
(-4.72006 0.000102184 0 17534.2 4.71709 0 0 0 0)
(-4.66163 -0.00030708 0 17372.9 4.68951 0 0 0 0)
(-4.85307 0.00445276 0 17216.2 4.69219 0 0 0 0)
(-5.38884 0.00888079 0 17046.4 5.33107 0 0 0 0)
(-5.9241 0.0071831 0 16854.4 5.94851 0 0 0 0)
(-6.23059 0.00176018 0 16649.4 6.31375 0 0 0 0)
(-6.29917 -0.00163971 0 16447.6 6.17302 0 0 0 0)
(-6.24748 0.00213664 0 16245.4 6.04615 0 0 0 0)
(-6.37491 0.00714114 0 16036.2 6.38321 0 0 0 0)
(-7.05291 0.00941768 0 15826.4 7.03237 0 0 0 0)
(-7.65137 0.00856608 0 15591.7 7.57357 0 0 0 0)
(-8.15409 0.00839849 0 15340 8.1573 0 0 0 0)
(-8.98283 0.0119823 0 15070.1 8.88112 0 0 0 0)
(-9.56908 0.00966984 0 14785 9.5413 0 0 0 0)
(-10.0342 0.00617026 0 14483.4 10.0199 0 0 0 0)
(-10.3646 0.00723117 0 14176.8 10.2878 0 0 0 0)
(-11.042 0.0100405 0 13839.7 11.0287 0 0 0 0)
(-11.6997 0.0130498 0 13507.5 11.5904 0 0 0 0)
(-12.7374 0.0161805 0 13149.2 12.6839 0 0 0 0)
(-13.6895 0.0146126 0 12750.9 13.5913 0 0 0 0)
(-14.6469 0.0177988 0 12340.8 14.4835 0 0 0 0)
(-15.8392 0.020754 0 11899.1 15.6021 0 0 0 0)
(-16.9855 0.0196164 0 11423.6 16.9279 0 0 0 0)
(-18.1271 0.0218658 0 10924.9 17.8353 0 0 0 0)
(-19.3934 0.026819 0 10395.7 19.4769 0 0 0 0)
(-21.2649 0.0309679 0 9817.73 21.1599 0 0 0 0)
(-22.8237 0.0393154 0 9209.91 23.0321 0 0 0 0)
(-26.7847 0.138955 0 8545.87 25.9674 0 0 0 0)
(-37.308 0.886345 0 7764.56 32.6643 0 0 0 0)
(80.4312 -0.125985 0 17337 -7.13852 0 0 0 0)
(17.6839 0.16609 0 18449.1 -2.30247 0 0 0 0)
(-6.08942 0.121186 0 18375.5 6.35046 0 0 0 0)
(-8.02503 0.0147205 0 18239.8 7.96587 0 0 0 0)
(-8.00559 -0.00548206 0 18085.3 7.89291 0 0 0 0)
(-7.66232 -0.00598645 0 17936.7 7.56867 0 0 0 0)
(-7.46694 -0.0037222 0 17792.5 7.38449 0 0 0 0)
(-7.29926 -0.00129666 0 17653.3 7.2253 0 0 0 0)
(-7.29391 -0.000319587 0 17517.9 7.27833 0 0 0 0)
(-7.38052 0.00081594 0 17379.2 7.27072 0 0 0 0)
(-7.47209 0.00211817 0 17241.6 7.38567 0 0 0 0)
(-7.51838 0.00027601 0 17099.3 7.45931 0 0 0 0)
(-7.41725 -0.000497315 0 16958 7.43177 0 0 0 0)
(-7.69056 0.012362 0 16816.9 7.47066 0 0 0 0)
(-8.57087 0.0243629 0 16669 8.46001 0 0 0 0)
(-9.4709 0.0192723 0 16502.5 9.43242 0 0 0 0)
(-9.86858 0.00443995 0 16321.5 9.9773 0 0 0 0)
(-9.91088 -0.00446368 0 16146.7 9.79287 0 0 0 0)
(-10.0551 0.00495679 0 15969.3 9.74 0 0 0 0)
(-10.3268 0.0192656 0 15779.5 10.2073 0 0 0 0)
(-11.1853 0.0252248 0 15584.7 11.198 0 0 0 0)
(-12.2551 0.0236147 0 15363.2 12.1958 0 0 0 0)
(-13.2148 0.0265255 0 15158.9 12.9956 0 0 0 0)
(-14.2751 0.030116 0 14909.9 14.2132 0 0 0 0)
(-15.1998 0.023599 0 14661 15.2479 0 0 0 0)
(-15.9627 0.0167916 0 14395.6 15.9158 0 0 0 0)
(-16.6325 0.0217579 0 14115.7 16.6181 0 0 0 0)
(-17.7871 0.0286811 0 13834.8 17.6778 0 0 0 0)
(-18.8096 0.0364258 0 13515.3 18.7714 0 0 0 0)
(-20.4832 0.0448244 0 13205.7 20.3699 0 0 0 0)
(-22.0262 0.0403179 0 12837.3 22.0326 0 0 0 0)
(-23.5023 0.0465513 0 12482.6 23.2552 0 0 0 0)
(-25.4377 0.0559804 0 12077.7 25.3005 0 0 0 0)
(-27.2816 0.0512346 0 11667.2 27.1407 0 0 0 0)
(-29.1848 0.0603797 0 11214.2 28.8365 0 0 0 0)
(-31.4749 0.0770926 0 10743.2 31.2431 0 0 0 0)
(-34.2574 0.0870285 0 10231.5 33.8733 0 0 0 0)
(-36.8418 0.113945 0 9675.31 37.2109 0 0 0 0)
(-42.7621 0.273085 0 9083.05 41.8397 0 0 0 0)
(-55.1521 1.49469 0 8379.68 51.2165 0 0 0 0)
(119.675 -0.221461 0 18653.9 -8.77667 0 0 0 0)
(4.22215 0.302128 0 17116.5 -2.41352 0 0 0 0)
(-7.52273 0.221222 0 17083.7 7.83602 0 0 0 0)
(-10.166 0.0314027 0 16999.1 10.1535 0 0 0 0)
(-10.3436 -0.00899767 0 16886.7 10.2158 0 0 0 0)
(-9.95949 -0.0111145 0 16773.3 9.86252 0 0 0 0)
(-9.73106 -0.00742441 0 16661.9 9.62846 0 0 0 0)
(-9.53476 -0.00237245 0 16553.3 9.3935 0 0 0 0)
(-9.55734 0.000561106 0 16446.8 9.51461 0 0 0 0)
(-9.69873 0.0022536 0 16333 9.59385 0 0 0 0)
(-9.84622 0.00427743 0 16217.6 9.77825 0 0 0 0)
(-9.95629 0.000951639 0 16099 9.8927 0 0 0 0)
(-9.92388 -8.21507e-05 0 15980.6 9.89723 0 0 0 0)
(-10.2873 0.0239282 0 15856.1 10.0117 0 0 0 0)
(-11.3556 0.0462115 0 15725.6 11.2879 0 0 0 0)
(-12.5794 0.036284 0 15585.6 12.551 0 0 0 0)
(-13.1042 0.00868622 0 15434.3 13.1985 0 0 0 0)
(-13.1691 -0.00624619 0 15284.6 13.0544 0 0 0 0)
(-13.478 0.0103797 0 15125.4 13.1641 0 0 0 0)
(-14.0177 0.0362313 0 14967.9 13.7835 0 0 0 0)
(-15.4058 0.049412 0 14779.8 15.0614 0 0 0 0)
(-16.2614 0.0450191 0 14589.3 16.2899 0 0 0 0)
(-17.4098 0.049718 0 14406.4 17.4547 0 0 0 0)
(-19.2445 0.0585329 0 14209.8 18.8906 0 0 0 0)
(-20.2647 0.0451577 0 13969.7 20.4252 0 0 0 0)
(-21.4811 0.0350425 0 13754.1 21.2099 0 0 0 0)
(-22.2405 0.0447119 0 13505.5 22.3001 0 0 0 0)
(-23.8795 0.0562055 0 13272.9 23.7282 0 0 0 0)
(-25.269 0.0713491 0 12994.4 25.1947 0 0 0 0)
(-27.5001 0.0873965 0 12724 27.3792 0 0 0 0)
(-29.5716 0.0781435 0 12406.3 29.532 0 0 0 0)
(-31.4921 0.0905654 0 12096.1 31.248 0 0 0 0)
(-34.0836 0.107928 0 11742.3 33.9307 0 0 0 0)
(-36.4837 0.0997029 0 11391.2 36.4596 0 0 0 0)
(-39.1817 0.115687 0 10985.2 38.9755 0 0 0 0)
(-41.9899 0.142934 0 10594.9 41.8603 0 0 0 0)
(-46.0526 0.169961 0 10146.2 45.5527 0 0 0 0)
(-49.7275 0.22662 0 9678.24 49.618 0 0 0 0)
(-57.4215 0.471507 0 9155.9 56.1348 0 0 0 0)
(-71.1545 2.10322 0 8539.17 67.9116 0 0 0 0)
(149.033 -0.322496 0 14878.6 -7.62635 0 0 0 0)
(-9.34754 0.453835 0 15292.2 -2.54738 0 0 0 0)
(-8.13147 0.340074 0 15298.6 8.42842 0 0 0 0)
(-11.4856 0.0565518 0 15264.6 11.5213 0 0 0 0)
(-12.0108 -0.0106627 0 15197.9 11.9007 0 0 0 0)
(-11.6868 -0.0165132 0 15120.7 11.6132 0 0 0 0)
(-11.4409 -0.0122251 0 15041.3 11.362 0 0 0 0)
(-11.2216 -0.00334506 0 14963.1 11.0903 0 0 0 0)
(-11.3492 0.00339449 0 14884.5 11.3011 0 0 0 0)
(-11.6397 0.0057553 0 14797.1 11.5216 0 0 0 0)
(-11.8612 0.00773913 0 14705.9 11.7929 0 0 0 0)
(-12.0043 0.00253214 0 14609.1 11.9687 0 0 0 0)
(-12.0576 0.00180563 0 14512.7 12.048 0 0 0 0)
(-12.6065 0.039348 0 14408.3 12.3076 0 0 0 0)
(-13.8352 0.0738847 0 14297.3 13.733 0 0 0 0)
(-15.1919 0.0568089 0 14179.5 15.254 0 0 0 0)
(-15.8326 0.01437 0 14057.5 15.9424 0 0 0 0)
(-16.0892 -0.00509313 0 13933.7 15.9486 0 0 0 0)
(-16.4453 0.0197806 0 13793.8 16.2873 0 0 0 0)
(-17.3694 0.0580649 0 13655 17.1414 0 0 0 0)
(-18.9657 0.0768218 0 13500.8 18.5031 0 0 0 0)
(-20.0038 0.0733828 0 13349.9 19.836 0 0 0 0)
(-21.162 0.0811428 0 13168.8 21.4312 0 0 0 0)
(-23.5034 0.0930102 0 12997.3 23.1543 0 0 0 0)
(-24.9164 0.0730972 0 12826 24.7644 0 0 0 0)
(-25.949 0.0572458 0 12633.5 25.7893 0 0 0 0)
(-27.0794 0.0766311 0 12451.3 27.0269 0 0 0 0)
(-28.9887 0.0922757 0 12232.8 29.0301 0 0 0 0)
(-30.9469 0.11745 0 12017.4 30.7571 0 0 0 0)
(-33.6136 0.141853 0 11768.7 33.5654 0 0 0 0)
(-36.1689 0.127629 0 11520.4 35.9969 0 0 0 0)
(-38.602 0.146872 0 11242.3 38.2843 0 0 0 0)
(-41.605 0.175813 0 10966.9 41.1832 0 0 0 0)
(-44.8165 0.168369 0 10657.5 44.575 0 0 0 0)
(-47.7859 0.186896 0 10341.8 47.4531 0 0 0 0)
(-51.2624 0.232681 0 9983.75 51.323 0 0 0 0)
(-56.065 0.272049 0 9614.67 55.7267 0 0 0 0)
(-60.6227 0.368897 0 9222.62 60.7683 0 0 0 0)
(-70.3769 0.717946 0 8789.96 68.5657 0 0 0 0)
(-84.8879 2.6576 0 8307.84 81.3967 0 0 0 0)
(140.861 -0.406207 0 12849.5 -6.89266 0 0 0 0)
(12.0759 0.587047 0 13260 -2.68393 0 0 0 0)
(-8.0098 0.472498 0 13290.7 8.25848 0 0 0 0)
(-11.9753 0.0940384 0 13295.7 12.082 0 0 0 0)
(-12.9591 -0.00731609 0 13270.5 12.8838 0 0 0 0)
(-12.8339 -0.0210078 0 13228.5 12.7683 0 0 0 0)
(-12.6491 -0.0171324 0 13179.2 12.5734 0 0 0 0)
(-12.4656 -0.00346123 0 13126.8 12.3368 0 0 0 0)
(-12.6904 0.00874719 0 13068.9 12.6391 0 0 0 0)
(-13.1009 0.0116719 0 13005.4 13.0194 0 0 0 0)
(-13.4612 0.012898 0 12938.7 13.3809 0 0 0 0)
(-13.7046 0.00592151 0 12864.5 13.6436 0 0 0 0)
(-13.8588 0.00661635 0 12788.7 13.8177 0 0 0 0)
(-14.5453 0.0574099 0 12701.9 14.2982 0 0 0 0)
(-15.9199 0.105104 0 12611.8 15.7684 0 0 0 0)
(-17.4075 0.0807786 0 12517.4 17.4289 0 0 0 0)
(-18.0972 0.0227831 0 12420.9 18.1952 0 0 0 0)
(-18.5785 0.000925398 0 12318.6 18.4543 0 0 0 0)
(-19.2496 0.0352132 0 12201.6 19.0363 0 0 0 0)
(-20.1374 0.0826338 0 12075.5 20.1115 0 0 0 0)
(-21.8323 0.106281 0 11953.7 21.487 0 0 0 0)
(-23.3278 0.107456 0 11836.4 22.8785 0 0 0 0)
(-24.9865 0.121135 0 11684.6 24.7373 0 0 0 0)
(-26.6629 0.130837 0 11531.4 26.6908 0 0 0 0)
(-28.2091 0.102781 0 11396.4 28.4047 0 0 0 0)
(-29.7469 0.0850999 0 11251.7 29.5873 0 0 0 0)
(-31.1665 0.117123 0 11081.6 31.1886 0 0 0 0)
(-33.6312 0.140224 0 10920.3 33.4621 0 0 0 0)
(-35.7941 0.174542 0 10727.3 35.6936 0 0 0 0)
(-38.8736 0.207522 0 10541.1 38.7931 0 0 0 0)
(-41.7321 0.187342 0 10322.1 41.6582 0 0 0 0)
(-44.3894 0.211731 0 10113.8 44.1968 0 0 0 0)
(-47.8397 0.256244 0 9874.13 47.5434 0 0 0 0)
(-51.3121 0.248766 0 9648.35 51.2756 0 0 0 0)
(-55.3272 0.277848 0 9382.44 54.8705 0 0 0 0)
(-59.5748 0.343467 0 9096.98 59.1603 0 0 0 0)
(-64.6241 0.401033 0 8803.05 64.1229 0 0 0 0)
(-70.0385 0.54376 0 8473.25 70.1942 0 0 0 0)
(-80.1389 0.985402 0 8129.75 78.8052 0 0 0 0)
(-95.9508 3.15379 0 7745.36 93.2892 0 0 0 0)
(170.202 -0.502579 0 12658.3 -6.63433 0 0 0 0)
(-1.80067 0.730021 0 11249.8 -2.65708 0 0 0 0)
(-7.47454 0.610512 0 11286.1 7.67452 0 0 0 0)
(-11.8556 0.142086 0 11313.5 12.0541 0 0 0 0)
(-13.2586 0.00216355 0 11319.5 13.2143 0 0 0 0)
(-13.4009 -0.0223344 0 11306.7 13.3867 0 0 0 0)
(-13.3714 -0.0204219 0 11282.8 13.321 0 0 0 0)
(-13.3359 -0.00201669 0 11251.7 13.2201 0 0 0 0)
(-13.6984 0.0166659 0 11210.6 13.6289 0 0 0 0)
(-14.1829 0.0203009 0 11166.2 14.1314 0 0 0 0)
(-14.6385 0.0200807 0 11119.5 14.5881 0 0 0 0)
(-14.9877 0.0112525 0 11065.7 14.9585 0 0 0 0)
(-15.3242 0.0150422 0 11008.2 15.2638 0 0 0 0)
(-16.1932 0.0790707 0 10939.3 15.983 0 0 0 0)
(-17.6092 0.138039 0 10866.9 17.4844 0 0 0 0)
(-19.1313 0.106906 0 10794.3 19.1982 0 0 0 0)
(-19.9752 0.0357661 0 10722.7 20.0217 0 0 0 0)
(-20.702 0.0127162 0 10639.7 20.6104 0 0 0 0)
(-21.6033 0.0550874 0 10542.9 21.4288 0 0 0 0)
(-22.6818 0.110673 0 10439.9 22.6691 0 0 0 0)
(-24.132 0.136697 0 10334.3 24.0305 0 0 0 0)
(-25.8714 0.144431 0 10243.7 25.489 0 0 0 0)
(-27.8695 0.165203 0 10138 27.4557 0 0 0 0)
(-29.9112 0.17461 0 10019.5 29.5651 0 0 0 0)
(-31.1919 0.138114 0 9896.62 31.4074 0 0 0 0)
(-33.0745 0.120429 0 9785.79 32.7642 0 0 0 0)
(-34.6444 0.165357 0 9659.08 34.5703 0 0 0 0)
(-37.151 0.19628 0 9522.91 37.1077 0 0 0 0)
(-39.7615 0.241757 0 9386.91 39.6018 0 0 0 0)
(-43.122 0.282051 0 9223.49 43.1501 0 0 0 0)
(-46.2847 0.255807 0 9065.05 46.149 0 0 0 0)
(-49.3121 0.287901 0 8886.49 49.0672 0 0 0 0)
(-52.8253 0.346894 0 8712.5 52.5268 0 0 0 0)
(-56.7885 0.347111 0 8519.41 56.8119 0 0 0 0)
(-61.3266 0.381007 0 8308.73 61.0217 0 0 0 0)
(-65.6127 0.462464 0 8088.89 65.6201 0 0 0 0)
(-71.6704 0.548739 0 7851.87 71.1928 0 0 0 0)
(-77.618 0.74054 0 7606.86 77.702 0 0 0 0)
(-88.9349 1.30839 0 7324.1 87.1162 0 0 0 0)
(-105.233 3.62792 0 7032.7 102.681 0 0 0 0)
(198.312 -0.585942 0 9427.22 -4.45761 0 0 0 0)
(-13.3614 0.854174 0 9444.52 -2.40379 0 0 0 0)
(-6.81039 0.748836 0 9473.15 6.89736 0 0 0 0)
(-11.3375 0.199081 0 9509.9 11.5834 0 0 0 0)
(-13.0844 0.0182197 0 9535.57 13.055 0 0 0 0)
(-13.5383 -0.0189049 0 9542.55 13.5639 0 0 0 0)
(-13.718 -0.0203439 0 9537.3 13.6757 0 0 0 0)
(-13.8852 0.00268981 0 9522.28 13.7868 0 0 0 0)
(-14.3877 0.0269011 0 9494.7 14.3365 0 0 0 0)
(-14.9252 0.0309377 0 9464.85 14.9124 0 0 0 0)
(-15.4912 0.0296675 0 9434.28 15.4215 0 0 0 0)
(-15.9744 0.0197631 0 9397.15 15.9562 0 0 0 0)
(-16.4624 0.0278356 0 9352.72 16.3982 0 0 0 0)
(-17.4815 0.103733 0 9299.98 17.3322 0 0 0 0)
(-18.9618 0.172669 0 9245.29 18.8304 0 0 0 0)
(-20.46 0.134488 0 9190.33 20.5253 0 0 0 0)
(-21.3993 0.0530216 0 9138.44 21.4297 0 0 0 0)
(-22.4565 0.031408 0 9074.51 22.3866 0 0 0 0)
(-23.5976 0.0801669 0 8997.59 23.4062 0 0 0 0)
(-24.7159 0.139856 0 8914.95 24.7731 0 0 0 0)
(-26.181 0.168876 0 8833.53 26.0376 0 0 0 0)
(-27.7154 0.184235 0 8754.77 27.5698 0 0 0 0)
(-30.0437 0.213305 0 8683.94 29.6049 0 0 0 0)
(-32.1557 0.220955 0 8604.24 31.8184 0 0 0 0)
(-33.5797 0.176387 0 8505.75 33.743 0 0 0 0)
(-35.2507 0.158638 0 8410.23 35.3249 0 0 0 0)
(-37.3188 0.219071 0 8314.66 37.3549 0 0 0 0)
(-40.0611 0.259318 0 8203.12 40.0303 0 0 0 0)
(-42.9342 0.319018 0 8096.28 42.8052 0 0 0 0)
(-46.6171 0.365292 0 7970.72 46.6574 0 0 0 0)
(-49.9156 0.331272 0 7845.97 49.8262 0 0 0 0)
(-53.0231 0.368318 0 7709.53 52.9326 0 0 0 0)
(-56.9193 0.448227 0 7576.18 56.5815 0 0 0 0)
(-61.3923 0.461219 0 7425.78 61.1797 0 0 0 0)
(-66.1702 0.50021 0 7272.04 65.8442 0 0 0 0)
(-71.1974 0.602686 0 7092.39 70.8059 0 0 0 0)
(-76.9829 0.711624 0 6914.69 76.6988 0 0 0 0)
(-83.7029 0.95706 0 6714.48 83.9466 0 0 0 0)
(-95.1248 1.63961 0 6500.38 93.6498 0 0 0 0)
(-111.898 4.05112 0 6288.66 109.881 0 0 0 0)
(201.487 -0.641302 0 6818.23 -2.51677 0 0 0 0)
(-0.6152 0.947406 0 7907.16 -1.85153 0 0 0 0)
(-6.21296 0.879948 0 7922.75 6.20523 0 0 0 0)
(-10.6386 0.261798 0 7960.49 10.8962 0 0 0 0)
(-12.6148 0.04109 0 7995.45 12.5999 0 0 0 0)
(-13.3639 -0.00998997 0 8013.64 13.4414 0 0 0 0)
(-13.7745 -0.0159057 0 8021.07 13.7481 0 0 0 0)
(-14.1946 0.0114234 0 8017.27 14.115 0 0 0 0)
(-14.8668 0.0396484 0 8000.42 14.8249 0 0 0 0)
(-15.4229 0.0426321 0 7980.61 15.4494 0 0 0 0)
(-16.041 0.0417863 0 7961.06 15.9601 0 0 0 0)
(-16.6942 0.0317532 0 7937.66 16.7095 0 0 0 0)
(-17.3771 0.0442345 0 7903.11 17.3046 0 0 0 0)
(-18.4824 0.131065 0 7863.77 18.3578 0 0 0 0)
(-19.9663 0.206821 0 7823.92 19.8781 0 0 0 0)
(-21.449 0.16334 0 7783.9 21.506 0 0 0 0)
(-22.5131 0.0766793 0 7746.69 22.4999 0 0 0 0)
(-23.8162 0.0565563 0 7699.23 23.7863 0 0 0 0)
(-25.1629 0.108478 0 7641.57 25.0057 0 0 0 0)
(-26.3759 0.169999 0 7577.84 26.438 0 0 0 0)
(-27.7704 0.200347 0 7515.72 27.6158 0 0 0 0)
(-29.302 0.226421 0 7456.03 29.1899 0 0 0 0)
(-31.3475 0.263698 0 7395.86 31.2717 0 0 0 0)
(-34.0759 0.271402 0 7348.93 33.6047 0 0 0 0)
(-35.7676 0.220908 0 7276.53 35.5651 0 0 0 0)
(-37.6283 0.206623 0 7198.64 37.374 0 0 0 0)
(-39.6194 0.278597 0 7118.25 39.6469 0 0 0 0)
(-42.4408 0.328573 0 7030.1 42.3924 0 0 0 0)
(-45.4445 0.404205 0 6944.45 45.2982 0 0 0 0)
(-49.2954 0.45551 0 6853.41 49.413 0 0 0 0)
(-52.7881 0.412317 0 6753.91 52.739 0 0 0 0)
(-56.0914 0.458041 0 6652.77 55.9467 0 0 0 0)
(-60.0194 0.556495 0 6546.31 59.7723 0 0 0 0)
(-64.5643 0.584587 0 6438.17 64.5808 0 0 0 0)
(-69.9376 0.630109 0 6319.73 69.6847 0 0 0 0)
(-74.915 0.74589 0 6184.65 74.8936 0 0 0 0)
(-81.6178 0.895252 0 6048.04 81.1216 0 0 0 0)
(-88.6168 1.19161 0 5889.85 88.8403 0 0 0 0)
(-100.344 2.00528 0 5727.46 98.7241 0 0 0 0)
(-117.393 4.46954 0 5571.13 115.305 0 0 0 0)
(205.161 -0.680433 0 6730.71 -1.41854 0 0 0 0)
(8.1527 1.02569 0 6632.07 -1.13141 0 0 0 0)
(-5.75486 1.00069 0 6635.46 5.69899 0 0 0 0)
(-9.885 0.326552 0 6669.63 10.1393 0 0 0 0)
(-12.013 0.0695122 0 6706.09 12.0077 0 0 0 0)
(-13.0161 0.00447236 0 6729 13.1166 0 0 0 0)
(-13.6422 -0.0064469 0 6744.4 13.6132 0 0 0 0)
(-14.3117 0.0250925 0 6747.69 14.2343 0 0 0 0)
(-15.1519 0.0548215 0 6740.24 15.1355 0 0 0 0)
(-15.7536 0.0548852 0 6727.84 15.8339 0 0 0 0)
(-16.4038 0.0565572 0 6714.52 16.2841 0 0 0 0)
(-17.2183 0.0487023 0 6701.26 17.2454 0 0 0 0)
(-18.0624 0.063664 0 6675.21 18.0116 0 0 0 0)
(-19.2113 0.160123 0 6647.42 19.109 0 0 0 0)
(-20.7225 0.242228 0 6618.71 20.682 0 0 0 0)
(-22.1778 0.192871 0 6590.24 22.2339 0 0 0 0)
(-23.3009 0.104395 0 6564.03 23.2865 0 0 0 0)
(-24.8396 0.0883671 0 6530.58 24.8284 0 0 0 0)
(-26.3749 0.140992 0 6489.44 26.2435 0 0 0 0)
(-27.6203 0.200176 0 6442.52 27.7199 0 0 0 0)
(-29.0185 0.233142 0 6396.19 28.8611 0 0 0 0)
(-30.5332 0.270397 0 6350.26 30.4726 0 0 0 0)
(-32.5864 0.318294 0 6305.19 32.5025 0 0 0 0)
(-35.0077 0.3239 0 6259.92 35.045 0 0 0 0)
(-37.2083 0.267622 0 6228.79 36.9635 0 0 0 0)
(-39.1056 0.258433 0 6163.25 39.0073 0 0 0 0)
(-41.4681 0.34288 0 6101.83 41.5523 0 0 0 0)
(-44.3785 0.399937 0 6025.2 44.3239 0 0 0 0)
(-47.363 0.495475 0 5970.33 47.1968 0 0 0 0)
(-51.4384 0.553809 0 5891.78 51.5461 0 0 0 0)
(-55.0376 0.498366 0 5826.38 54.9985 0 0 0 0)
(-58.3703 0.549888 0 5738.49 58.305 0 0 0 0)
(-62.4996 0.673271 0 5667.16 62.2083 0 0 0 0)
(-67.3424 0.721909 0 5573.94 67.2613 0 0 0 0)
(-72.8852 0.773888 0 5489.97 72.7082 0 0 0 0)
(-78.4667 0.909147 0 5387.84 78.1178 0 0 0 0)
(-84.9311 1.08861 0 5278.82 84.6671 0 0 0 0)
(-92.4278 1.43726 0 5164.07 92.5908 0 0 0 0)
(-103.87 2.3684 0 5035.92 102.661 0 0 0 0)
(-121.026 4.86848 0 4925.64 119.448 0 0 0 0)
(225.608 -0.702327 0 5854.42 -0.212726 0 0 0 0)
(-2.76938 1.09098 0 5602.02 -0.330323 0 0 0 0)
(-5.44989 1.10831 0 5596.24 5.32019 0 0 0 0)
(-9.19246 0.390766 0 5623.97 9.35817 0 0 0 0)
(-11.3886 0.102618 0 5657.12 11.3908 0 0 0 0)
(-12.5642 0.0235 0 5681.97 12.6593 0 0 0 0)
(-13.3805 0.0076944 0 5701.88 13.365 0 0 0 0)
(-14.2821 0.0438573 0 5709.47 14.2132 0 0 0 0)
(-15.2911 0.0739747 0 5708.95 15.2939 0 0 0 0)
(-15.9783 0.0674626 0 5702.03 16.1164 0 0 0 0)
(-16.6195 0.0726757 0 5692.3 16.4439 0 0 0 0)
(-17.5594 0.0698556 0 5686.28 17.6022 0 0 0 0)
(-18.5723 0.0857475 0 5668.33 18.5317 0 0 0 0)
(-19.7482 0.191072 0 5649.09 19.6387 0 0 0 0)
(-21.2586 0.277596 0 5629.12 21.2385 0 0 0 0)
(-22.6961 0.222825 0 5609.96 22.7234 0 0 0 0)
(-23.8875 0.136639 0 5591.14 23.8709 0 0 0 0)
(-25.5494 0.125448 0 5567.83 25.5101 0 0 0 0)
(-27.228 0.176454 0 5542.17 27.1294 0 0 0 0)
(-28.5833 0.232047 0 5508.49 28.6621 0 0 0 0)
(-29.9743 0.266269 0 5474.31 29.8222 0 0 0 0)
(-31.4959 0.314398 0 5439.21 31.4444 0 0 0 0)
(-33.5455 0.375208 0 5403.52 33.4341 0 0 0 0)
(-35.9535 0.3811 0 5371.87 35.9756 0 0 0 0)
(-38.1647 0.319325 0 5338.76 38.1134 0 0 0 0)
(-40.8107 0.32176 0 5303.19 40.2627 0 0 0 0)
(-43.1081 0.413086 0 5249.13 43.0423 0 0 0 0)
(-45.7859 0.47259 0 5192.52 45.8943 0 0 0 0)
(-48.8767 0.590351 0 5136.22 48.7652 0 0 0 0)
(-53.0268 0.658167 0 5089.67 53.1451 0 0 0 0)
(-56.804 0.589575 0 5030.2 56.8672 0 0 0 0)
(-60.2979 0.648974 0 4972.38 60.1471 0 0 0 0)
(-64.4087 0.795865 0 4906.95 64.2082 0 0 0 0)
(-69.3283 0.867695 0 4848.67 69.221 0 0 0 0)
(-74.9902 0.925453 0 4781.91 74.9624 0 0 0 0)
(-80.6943 1.07428 0 4708.1 80.6519 0 0 0 0)
(-87.8112 1.29648 0 4629.58 87.3117 0 0 0 0)
(-95.3974 1.69501 0 4529.86 95.715 0 0 0 0)
(-107.064 2.76418 0 4439.92 105.67 0 0 0 0)
(-124.004 5.27681 0 4355.62 122.321 0 0 0 0)
(226.56 -0.702259 0 4893.14 1.19277 0 0 0 0)
(3.06225 1.14014 0 4760.57 0.462285 0 0 0 0)
(-5.29655 1.20201 0 4749.46 5.13368 0 0 0 0)
(-8.60695 0.453855 0 4770.5 8.70495 0 0 0 0)
(-10.7846 0.139461 0 4798.33 10.8334 0 0 0 0)
(-12.0585 0.0467029 0 4823.52 12.1435 0 0 0 0)
(-13.0489 0.0271808 0 4844.84 13.0585 0 0 0 0)
(-14.1572 0.0671989 0 4855.02 14.0861 0 0 0 0)
(-15.3146 0.0966866 0 4859.41 15.3266 0 0 0 0)
(-16.1223 0.0803568 0 4857.33 16.3261 0 0 0 0)
(-16.7553 0.0899289 0 4849.5 16.5355 0 0 0 0)
(-17.7594 0.0959208 0 4847.67 17.8224 0 0 0 0)
(-18.9085 0.110156 0 4837.75 18.8878 0 0 0 0)
(-20.1117 0.22248 0 4825.32 20.0184 0 0 0 0)
(-21.6292 0.313878 0 4811.7 21.6495 0 0 0 0)
(-23.0663 0.254564 0 4799.58 23.0873 0 0 0 0)
(-24.2957 0.170389 0 4786.44 24.3086 0 0 0 0)
(-26.0057 0.166203 0 4770.77 25.9393 0 0 0 0)
(-27.8021 0.216987 0 4756.49 27.7625 0 0 0 0)
(-29.2666 0.265629 0 4733.85 29.3406 0 0 0 0)
(-30.7157 0.301493 0 4709.48 30.6034 0 0 0 0)
(-32.2841 0.359898 0 4681.48 32.2728 0 0 0 0)
(-34.2658 0.431587 0 4653.65 34.1802 0 0 0 0)
(-36.6379 0.441913 0 4630.64 36.6771 0 0 0 0)
(-38.9545 0.376811 0 4608.38 38.9229 0 0 0 0)
(-41.396 0.38511 0 4578.72 41.2983 0 0 0 0)
(-44.332 0.488941 0 4557.29 44.1754 0 0 0 0)
(-47.3339 0.549706 0 4497.63 47.2186 0 0 0 0)
(-50.073 0.687103 0 4462.8 49.8623 0 0 0 0)
(-54.2601 0.769676 0 4417.22 54.322 0 0 0 0)
(-58.1862 0.68665 0 4385.95 58.2131 0 0 0 0)
(-61.7094 0.749196 0 4328.54 61.6433 0 0 0 0)
(-65.8808 0.921914 0 4289.61 65.6011 0 0 0 0)
(-70.7924 1.01927 0 4234.43 70.7442 0 0 0 0)
(-76.8028 1.09288 0 4192.08 76.6506 0 0 0 0)
(-82.7526 1.25707 0 4126.47 82.7609 0 0 0 0)
(-89.9879 1.51685 0 4066.53 89.679 0 0 0 0)
(-97.8566 1.96385 0 4001.23 97.8392 0 0 0 0)
(-108.892 3.13869 0 3926.4 108.004 0 0 0 0)
(-125.777 5.68258 0 3875.84 124.029 0 0 0 0)
(239.982 -0.678932 0 4301.23 2.0846 0 0 0 0)
(-5.98376 1.17467 0 4083.7 1.18804 0 0 0 0)
(-5.23605 1.28398 0 4071.22 5.08091 0 0 0 0)
(-8.1405 0.513351 0 4085.82 8.16132 0 0 0 0)
(-10.2369 0.177298 0 4107.87 10.2989 0 0 0 0)
(-11.5441 0.0723036 0 4132.21 11.5754 0 0 0 0)
(-12.684 0.0507644 0 4153.39 12.6805 0 0 0 0)
(-13.9563 0.0946066 0 4165.32 13.8598 0 0 0 0)
(-15.2383 0.124522 0 4173.23 15.2474 0 0 0 0)
(-16.2035 0.0949095 0 4175.44 16.45 0 0 0 0)
(-16.8401 0.107149 0 4169.19 16.5943 0 0 0 0)
(-17.8311 0.124377 0 4169.64 17.8632 0 0 0 0)
(-19.0934 0.137147 0 4166.91 19.0489 0 0 0 0)
(-20.3616 0.256343 0 4159.26 20.2807 0 0 0 0)
(-21.8698 0.350683 0 4150.07 21.8923 0 0 0 0)
(-23.3018 0.286727 0 4143.65 23.2773 0 0 0 0)
(-24.5852 0.205893 0 4134.7 24.606 0 0 0 0)
(-26.2801 0.210069 0 4124.12 26.1685 0 0 0 0)
(-28.1382 0.260501 0 4118.53 28.0939 0 0 0 0)
(-29.7531 0.302893 0 4103.94 29.7781 0 0 0 0)
(-31.2902 0.340142 0 4086.27 31.2148 0 0 0 0)
(-32.9118 0.405255 0 4065.13 32.8567 0 0 0 0)
(-34.8464 0.488152 0 4042.7 34.7679 0 0 0 0)
(-37.1217 0.503745 0 4024.88 37.1006 0 0 0 0)
(-39.5178 0.44003 0 4010.6 39.4294 0 0 0 0)
(-42.1577 0.460323 0 3989.07 42.0465 0 0 0 0)
(-45.2645 0.570557 0 3962.37 45.2002 0 0 0 0)
(-48.3104 0.625083 0 3928.74 48.3275 0 0 0 0)
(-51.0525 0.782877 0 3898.97 50.7396 0 0 0 0)
(-55.1202 0.886322 0 3864.74 55.1264 0 0 0 0)
(-59.2484 0.791487 0 3835.54 59.3998 0 0 0 0)
(-62.9744 0.854691 0 3799.39 62.8717 0 0 0 0)
(-67.0499 1.05164 0 3757.32 66.9068 0 0 0 0)
(-72.0885 1.18107 0 3726.28 71.8856 0 0 0 0)
(-78.0741 1.26928 0 3685.93 78.0492 0 0 0 0)
(-84.3112 1.45056 0 3649.23 84.177 0 0 0 0)
(-91.4511 1.73584 0 3595.72 91.406 0 0 0 0)
(-99.5078 2.23397 0 3548.91 99.6016 0 0 0 0)
(-110.781 3.5423 0 3494.73 109.703 0 0 0 0)
(-127.182 6.10414 0 3452.6 125.724 0 0 0 0)
(238.43 -0.643887 0 3177.66 2.53589 0 0 0 0)
(-1.73862 1.20556 0 3524.62 1.81339 0 0 0 0)
(-5.24833 1.35441 0 3513.64 5.07873 0 0 0 0)
(-7.79816 0.568973 0 3523.05 7.75257 0 0 0 0)
(-9.75087 0.215485 0 3540.72 9.82484 0 0 0 0)
(-11.0349 0.100295 0 3563.7 11.0326 0 0 0 0)
(-12.298 0.0791152 0 3583.02 12.3353 0 0 0 0)
(-13.7024 0.126086 0 3595.78 13.6443 0 0 0 0)
(-15.0801 0.156613 0 3605.91 15.1061 0 0 0 0)
(-16.2166 0.111703 0 3611.97 16.4782 0 0 0 0)
(-16.8906 0.123318 0 3607.38 16.647 0 0 0 0)
(-17.8128 0.154267 0 3609.02 17.8327 0 0 0 0)
(-19.1566 0.168194 0 3611.47 19.1391 0 0 0 0)
(-20.5183 0.291361 0 3607.47 20.4729 0 0 0 0)
(-22.0088 0.387047 0 3601.75 22.0336 0 0 0 0)
(-23.4443 0.321489 0 3599.25 23.4092 0 0 0 0)
(-24.7806 0.242357 0 3593.38 24.8548 0 0 0 0)
(-26.4093 0.253812 0 3587.19 26.251 0 0 0 0)
(-28.3124 0.308472 0 3586.95 28.2981 0 0 0 0)
(-30.09 0.34547 0 3578.05 30.1243 0 0 0 0)
(-31.7157 0.380987 0 3566.01 31.695 0 0 0 0)
(-33.4173 0.452485 0 3549.84 33.3627 0 0 0 0)
(-35.3217 0.543156 0 3532.31 35.3105 0 0 0 0)
(-37.4871 0.565547 0 3518.11 37.4204 0 0 0 0)
(-39.9118 0.509306 0 3508.17 39.8849 0 0 0 0)
(-42.6968 0.541133 0 3493.87 42.5899 0 0 0 0)
(-45.9746 0.660266 0 3475.21 45.9674 0 0 0 0)
(-49.075 0.70203 0 3451.63 49.2492 0 0 0 0)
(-51.8482 0.876085 0 3424.18 51.6033 0 0 0 0)
(-56.0374 1.01243 0 3400.8 55.658 0 0 0 0)
(-60.0315 0.905675 0 3384.37 60.1586 0 0 0 0)
(-63.9385 0.963533 0 3355.12 63.9136 0 0 0 0)
(-67.9818 1.18163 0 3324.52 67.7584 0 0 0 0)
(-72.8617 1.34327 0 3296.85 72.7555 0 0 0 0)
(-79.0588 1.45348 0 3274.34 78.8472 0 0 0 0)
(-85.4196 1.65268 0 3238.71 85.3505 0 0 0 0)
(-92.9845 1.97803 0 3205.12 92.6502 0 0 0 0)
(-100.899 2.51583 0 3157 101.257 0 0 0 0)
(-111.81 3.9341 0 3124.21 111.059 0 0 0 0)
(-127.982 6.53364 0 3102.26 126.021 0 0 0 0)
(235.998 -0.595506 0 3206.5 3.64598 0 0 0 0)
(1.43938 1.23157 0 3065.02 2.306 0 0 0 0)
(-5.26936 1.41714 0 3057.75 5.12095 0 0 0 0)
(-7.52724 0.620753 0 3064.28 7.48897 0 0 0 0)
(-9.30762 0.252174 0 3079.52 9.42837 0 0 0 0)
(-10.5691 0.130258 0 3099.96 10.5604 0 0 0 0)
(-11.9381 0.111624 0 3116.16 11.9995 0 0 0 0)
(-13.4184 0.159756 0 3128.83 13.3764 0 0 0 0)
(-14.8541 0.19175 0 3140.47 14.8862 0 0 0 0)
(-16.1687 0.131693 0 3149.67 16.4245 0 0 0 0)
(-16.9102 0.13998 0 3147.38 16.7167 0 0 0 0)
(-17.7304 0.18514 0 3149.44 17.7557 0 0 0 0)
(-19.1311 0.202126 0 3154.84 19.113 0 0 0 0)
(-20.6023 0.328241 0 3153.8 20.5994 0 0 0 0)
(-22.0745 0.424227 0 3150.57 22.1444 0 0 0 0)
(-23.5129 0.358078 0 3150.41 23.4955 0 0 0 0)
(-24.8917 0.278384 0 3147.54 25.0063 0 0 0 0)
(-26.4437 0.298815 0 3145.03 26.2771 0 0 0 0)
(-28.3753 0.361178 0 3147.14 28.4345 0 0 0 0)
(-30.3009 0.391987 0 3142.94 30.3355 0 0 0 0)
(-32.036 0.425904 0 3135.09 32.1064 0 0 0 0)
(-33.8104 0.501875 0 3122.33 33.7864 0 0 0 0)
(-35.7001 0.597526 0 3109.78 35.7671 0 0 0 0)
(-37.7769 0.628221 0 3097.76 37.7549 0 0 0 0)
(-40.1821 0.582001 0 3090.79 40.1742 0 0 0 0)
(-43.0694 0.628991 0 3081.03 43.0324 0 0 0 0)
(-46.4429 0.7568 0 3069.2 46.4927 0 0 0 0)
(-49.7495 0.784031 0 3055.6 50.0043 0 0 0 0)
(-52.4973 0.965521 0 3029.43 52.4093 0 0 0 0)
(-56.2543 1.13213 0 3015.85 55.9988 0 0 0 0)
(-60.5719 1.03092 0 3016.15 60.5714 0 0 0 0)
(-64.7238 1.07716 0 2985.97 64.8329 0 0 0 0)
(-68.7683 1.31294 0 2965.24 68.5148 0 0 0 0)
(-73.5829 1.51179 0 2937.81 73.5246 0 0 0 0)
(-79.8219 1.6483 0 2920.1 79.7879 0 0 0 0)
(-86.4102 1.86984 0 2894.6 86.3616 0 0 0 0)
(-93.9491 2.22331 0 2868.54 93.8484 0 0 0 0)
(-102.004 2.80331 0 2844.23 102.021 0 0 0 0)
(-112.483 4.31552 0 2811.27 112.089 0 0 0 0)
(-128.28 6.96946 0 2800.24 126.561 0 0 0 0)
(241.988 -0.522223 0 2884.75 4.19305 0 0 0 0)
(-5.24166 1.23941 0 2689.9 2.6739 0 0 0 0)
(-5.26374 1.4736 0 2687.01 5.10816 0 0 0 0)
(-7.29201 0.668946 0 2692.3 7.23275 0 0 0 0)
(-8.91426 0.287386 0 2706.02 9.01727 0 0 0 0)
(-10.1691 0.16117 0 2722.75 10.125 0 0 0 0)
(-11.6095 0.146374 0 2736.68 11.636 0 0 0 0)
(-13.1167 0.195687 0 2748.68 13.077 0 0 0 0)
(-14.5729 0.230786 0 2760.96 14.5965 0 0 0 0)
(-16.0472 0.156547 0 2772.23 16.2751 0 0 0 0)
(-16.8955 0.15637 0 2773.42 16.779 0 0 0 0)
(-17.6258 0.214175 0 2774.93 17.5978 0 0 0 0)
(-19.0465 0.239985 0 2781.14 18.9981 0 0 0 0)
(-20.6266 0.368575 0 2782.48 20.6537 0 0 0 0)
(-22.095 0.461424 0 2781.47 22.1605 0 0 0 0)
(-23.5225 0.395718 0 2782.25 23.4814 0 0 0 0)
(-24.9205 0.315112 0 2782.09 25.0474 0 0 0 0)
(-26.4184 0.344445 0 2782.58 26.2473 0 0 0 0)
(-28.3678 0.416618 0 2785.29 28.3938 0 0 0 0)
(-30.4134 0.444267 0 2784.7 30.4153 0 0 0 0)
(-32.2748 0.474675 0 2780.53 32.4068 0 0 0 0)
(-34.1092 0.552799 0 2770.45 34.0412 0 0 0 0)
(-35.9997 0.652855 0 2761.79 36.1125 0 0 0 0)
(-38.0155 0.688502 0 2752 37.9485 0 0 0 0)
(-40.3822 0.657962 0 2746.56 40.3226 0 0 0 0)
(-43.3086 0.720756 0 2739.48 43.3091 0 0 0 0)
(-46.7012 0.860237 0 2733.38 46.6538 0 0 0 0)
(-50.2249 0.873155 0 2728.12 50.5387 0 0 0 0)
(-53.0054 1.05123 0 2708.52 52.9095 0 0 0 0)
(-56.4261 1.25309 0 2698.15 56.2097 0 0 0 0)