/*--------------------------------*- C++ -*----------------------------------*\
| =========                 |                                                 |
| \\      /  F ield         | OpenFOAM: The Open Source CFD Toolbox           |
|  \\    /   O peration     | Version:  2506                                  |
|   \\  /    A nd           | Website:  www.openfoam.com                      |
|    \\/     M anipulation  |                                                 |
\*---------------------------------------------------------------------------*/
FoamFile
{
    version     2.0;
    format      ascii;
    arch        "LSB;label=32;scalar=64";
    class       volScalarField;
    location    "6000";
    object      omega;
}
// * * * * * * * * * * * * * * * * * * * * * * * * * * * * * * * * * * * * * //

dimensions      [0 0 -1 0 0 0 0];

internalField   nonuniform List<scalar> 
72100
(
3.51413e+06
3.51411e+06
3.5141e+06
3.5141e+06
3.5141e+06
3.5141e+06
3.5141e+06
3.5141e+06
3.5141e+06
3.5141e+06
3.5141e+06
3.5141e+06
3.5141e+06
3.5141e+06
3.5141e+06
3.5141e+06
3.5141e+06
3.5141e+06
3.51412e+06
3.51412e+06
3.5141e+06
3.51413e+06
3.51411e+06
3.51411e+06
3.51412e+06
3.5141e+06
3.51413e+06
3.5141e+06
3.51413e+06
3.5141e+06
3.51412e+06
3.5141e+06
3.51412e+06
3.51409e+06
3.51412e+06
3.5141e+06
3.5141e+06
3.51411e+06
3.51409e+06
3.51412e+06
599579
599427
599368
599378
599331
599287
599245
599205
599166
599128
599092
599056
599019
598985
598955
598920
598879
598835
598805
598767
598721
598693
598639
598590
598562
598494
598458
598382
598349
598280
598243
598167
598136
598057
598024
597946
597904
597841
597803
597963
204529
205029
205131
205073
204977
204883
204791
204700
204610
204522
204439
204354
204269
204187
204106
204014
203910
203804
203706
203610
203504
203395
203284
203161
203036
202895
202755
202608
202468
202321
202167
201999
201839
201666
201500
201322
201149
200960
200798
200764
103197
103317
103386
103322
103210
103095
102975
102853
102731
102606
102487
102365
102244
102122
101995
101854
101699
101543
101389
101238
101073
100901
100724
100539
100326
100118
99892.9
99668.7
99440.1
99207.2
98950.2
98683.5
98405.6
98120.5
97828.3
97531.2
97220.7
96899.9
96589.8
96350.1
65044.1
65960.4
66084
66067.7
65989.1
65891.2
65779.5
65661.2
65539.2
65410.1
65283.5
65150.6
65016.8
64880.3
64735.2
64574.4
64403
64230.6
64050.4
63869.4
63679.3
63485.3
63269.2
63050.5
62814.5
62573.5
62320.4
62053.3
61787.9
61508.6
61207.9
60890.3
60560.4
60215.5
59863.5
59491.4
59105.4
58708.2
58314.7
57955.7
47137
48075
48314.8
48369.2
48347
48289.7
48208.3
48114.3
48011.6
47899.2
47786.4
47664.5
47538.6
47406.9
47268
47114.7
46953.3
46789.1
46612.5
46426.8
46240.3
46053.2
45842.4
45622.2
45395.5
45164.3
44913.8
44653.6
44387.9
44113.9
43814.4
43503.8
43174.8
42834.6
42481.2
42103.2
41711.9
41304.5
40900.1
40514.5
36755
37579.4
37884.2
38003
38036.7
38023.8
37979.1
37915.7
37839.2
37751.6
37660.6
37559.9
37452.2
37337.2
37216.3
37083.6
36945.8
36802.7
36645.4
36476.4
36306.8
36140.2
35958.2
35764.6
35559.6
35354.8
35132.1
34897.4
34661
34412.5
34146.9
33866.8
33574.2
33265.8
32945.6
32601.7
32244.1
31873
31500.6
31145.2
29129.4
30459.4
30836.8
31007.6
31086.6
31111.7
31100.9
31066.6
31016.4
30953.9
30885.9
30808.7
30721.7
30627.6
30529
30420.8
30309.2
30191.8
30061
29917.2
29773.8
29630.8
29481
29322.7
29150.1
28974.4
28786.4
28584.3
28383.4
28171.7
27947.6
27709.6
27462.6
27198.9
26926.9
26630.3
26322.6
26001.2
25680
25378.6
23807.2
25212.6
25664.7
25874.7
25986.3
26040.6
26057.5
26048.1
26021
25981.1
25933.8
25878.6
25812
25738.7
25661.6
25577.3
25490.3
25397.8
25294.8
25178.5
25062.4
24945
24822.5
24697.3
24559.5
24414.2
24259
24090.5
23924.5
23750.7
23567.8
23372.4
23169.8
22952.6
22728.9
22482.7
22226.8
21958
21691
21446.5
20035.9
21194.1
21687.3
21923.6
22056.7
22131.8
22170.1
22180.6
22173
22152.2
22122.3
22086.2
22038.3
21983.7
21925.4
21862.2
21796.6
21726.2
21648.8
21558.8
21467.9
21374.4
21276.5
21176.4
21070.8
20954.7
20830.2
20692.5
20558.8
20418.7
20273.8
20116.3
19954.2
19778.6
19599
19399.8
19191.6
18972.7
18755.7
18563.7
16986.9
18047
18543.3
18794
18940.2
19029.5
19083.4
19109.3
19117.4
19112.2
19096.7
19076.3
19045.1
19006.5
18964
18918.5
18870.7
18818.8
18763.6
18696.6
18627.8
18555.2
18478.2
18399.9
18317.9
18228.9
18131.6
18021.8
17914.7
17804.7
17691.3
17567.8
17439.1
17301
17159.1
17000.8
16835.4
16659.8
16487.6
16340.9
14544.3
15526.2
16010.3
16266.3
16419.5
16518.1
16582.5
16620.1
16640.3
16647.8
16643.9
16636
16619.1
16593.9
16564.5
16533.5
16500.2
16463.6
16426.4
16379
16328.7
16273.9
16214.8
16154.5
16091.9
16024.3
15951.5
15865.8
15782.5
15696.5
15610.7
15514.6
15414.9
15307.4
15197.8
15073.8
14944.6
14807.6
14673.2
14565.4
12572.3
13481.4
13942
14196.4
14352.2
14456.1
14527.2
14573.2
14602.7
14620.1
14625.7
14627.6
14622.5
14608.4
14589.8
14570.4
14549
14524.8
14501.7
14470.3
14435.4
14395.6
14351.4
14305.9
14259.2
14209
14154.7
14091.3
14027.9
13962.4
13898.5
13826.3
13749.6
13668.4
13585
13490.8
13391.8
13287
13185.2
13109.1
10998.8
11802.9
12234.2
12481.6
12637.1
12743.2
12818
12869.5
12905.8
12931.1
12944.5
12953.8
12957.8
12953.1
12943.4
12933.3
12921.4
12907.4
12895
12876.3
12854
12826.7
12795.3
12761.9
12728
12692.1
12653.1
12608.3
12561.3
12513.5
12468.1
12415.2
12358.2
12297.8
12236.8
12166.8
12093.8
12015.5
11941.1
11892
9758.88
10416.2
10811.6
11048.1
11200.7
11306.7
11382.9
11438
11478.9
11510
11529.8
11544.7
11555.7
11558.6
11556.4
11553.6
11549.4
11543.7
11539.3
11530.6
11518.5
11501.6
11480.9
11457.6
11434.1
11409.8
11383.3
11353.8
11320.8
11287.8
11257.9
11220.7
11180.2
11136.7
11093.8
11044.4
10993
10937.7
10885.6
10858.4
8683.89
9260.02
9617.18
9839.89
9987.61
10091.7
10167.8
10224.7
10268.5
10303.8
10328.8
10348
10363.9
10373
10377.2
10380
10382.2
10383.1
10384.6
10383.5
10379.8
10371.5
10359.7
10345
10330.1
10315.1
10298.8
10281.6
10260.9
10239.9
10221.8
10198.4
10171.4
10142.2
10114.1
10082
10048.7
10012.5
9979.21
9969.72
7791.17
8287.69
8606.7
8813.66
8954.87
9055.7
9130.66
9188.01
9233.34
9271.41
9300.53
9323.06
9342.39
9356.34
9365.66
9373.13
9380.4
9386.67
9392.53
9397.24
9400.11
9398.99
9394.53
9387.13
9379.36
9371.94
9363.9
9356.6
9346.2
9335.26
9326.61
9314.69
9299.26
9281.92
9266.74
9248.47
9230.51
9210.1
9192.61
9197.98
7063.26
7465.86
7746.3
7936.22
8069.6
8166.26
8239.17
8296.1
8341.95
8381.57
8413.76
8438.89
8460.64
8478.18
8491.64
8502.97
8514.33
8524.78
8534
8542.96
8551.04
8555.76
8557.32
8556.15
8554.46
8553.24
8551.71
8552.2
8550.48
8547.8
8546.92
8544.42
8538.74
8531.49
8526.87
8520.3
8515.04
8508.05
8503.97
8521.72
6436.35
6765.82
7009.37
7181.67
7306.21
7398.03
7468.18
7524.01
7569.75
7609.96
7644.24
7671.37
7694.79
7714.88
7731.58
7746.17
7760.79
7774.43
7786.37
7798.46
7810.51
7819.9
7826.34
7830.47
7833.89
7837.79
7841.47
7847.96
7853.38
7857.48
7863.04
7868.19
7870.97
7872.26
7876.1
7879.45
7884.64
7888.87
7896.4
7924.07
5904.56
6164.9
6374.61
6529.31
6644.32
6730.79
6797.62
6851.8
6897.03
6937.11
6972.55
7001.15
7025.68
7047.5
7066.68
7084.01
7101.17
7117.25
7131.46
7145.91
7160.91
7173.87
7184.25
7192.81
7200.53
7208.67
7216.61
7227.61
7238.76
7248.41
7259.3
7270.66
7280.73
7289.33
7300.2
7311.65
7325.56
7339.17
7356.63
7392.22
5433.68
5645.99
5824.83
5962.46
6067.58
6148.29
6211.42
6263.52
6307.88
6347.29
6383.07
6412.62
6437.79
6460.77
6481.82
6501.32
6520.45
6538.39
6554.55
6570.81
6587.93
6603.58
6617.11
6629.29
6640.6
6652.25
6663.74
6678.11
6693.71
6707.87
6723.17
6739.59
6755.79
6770.67
6787.36
6805.42
6826.55
6848.04
6874.01
6916.25
5014.48
5193.88
5346.14
5467.63
5562.76
5637.41
5696.61
5746.33
5789.41
5827.74
5863.21
5893.19
5918.66
5942.36
5964.78
5985.91
6006.49
6025.84
6043.66
6061.33
6079.96
6097.63
6113.64
6128.77
6143
6157.55
6172
6188.92
6207.81
6225.63
6244.55
6265.1
6286.32
6306.57
6328.12
6351.64
6378.65
6406.76
6439.96
6487.74
4653.71
4798.54
4927.27
5033.69
5119.05
5187.48
5242.64
5289.74
5331.14
5368.07
5402.69
5432.65
5458.19
5482.25
5505.63
5527.89
5549.48
5569.87
5589.02
5607.79
5627.49
5646.69
5664.64
5682.13
5698.7
5715.63
5732.52
5751.4
5772.67
5793.4
5815.26
5839.17
5864.36
5889.14
5914.82
5942.9
5974.68
6008.27
6047.53
6099.97
4331.26
4450.88
4559.02
4651.49
4727.49
4789.73
4840.81
4885.1
4924.46
4959.73
4993.12
5022.68
5048.16
5072.31
5096.24
5119.2
5141.42
5162.52
5182.65
5202.27
5222.72
5243.1
5262.52
5281.82
5300.28
5319.14
5338.04
5358.46
5381.39
5404.41
5428.67
5455.21
5483.49
5511.94
5541.23
5573.1
5608.78
5646.81
5691.05
5747.51
4050.09
4143.6
4233.75
4313.37
4380.53
4436.75
4483.79
4525.13
4562.2
4595.64
4627.48
4656.35
4681.68
4705.7
4729.79
4753.08
4775.6
4797.12
4817.89
4838.16
4859.12
4880.36
4900.91
4921.51
4941.49
4961.9
4982.44
5004.12
5028.19
5052.94
5079.13
5107.68
5138.3
5169.64
5202.05
5237.07
5275.95
5317.51
5365.77
5425.66
3800.7
3871.53
3945.2
4012.99
4071.91
4122.39
4165.48
4203.79
4238.43
4269.93
4300.01
4327.95
4353
4376.74
4400.63
4423.92
4446.46
4468.17
4489.26
4510
4531.28
4553.1
4574.5
4596
4617.14
4638.78
4660.65
4683.38
4708.21
4734.22
4761.92
4792
4824.36
4857.89
4892.89
4930.55
4972.01
5016.4
5067.77
5130.53
3577.05
3628.72
3688.12
3745.15
3796.41
3841.5
3880.75
3916.03
3948.2
3977.7
4005.9
4032.7
4057.3
4080.63
4104.03
4127.07
4149.37
4171.07
4192.22
4213.26
4234.69
4256.85
4278.85
4300.96
4322.96
4345.51
4368.43
4392.05
4417.4
4444.25
4473.09
4504.31
4537.95
4573.09
4610.16
4649.96
4693.5
4740.15
4793.88
4859.01
3373.5
3411.4
3458.16
3505.48
3549.67
3589.73
3625.27
3657.57
3687.28
3714.78
3741.05
3766.53
3790.5
3813.28
3835.99
3858.57
3880.47
3901.98
3922.97
3944.12
3965.55
3987.86
4010.22
4032.7
4055.3
4078.46
4102.17
4126.53
4152.27
4179.63
4209.28
4241.31
4275.89
4312.17
4350.81
4392.31
4437.51
4485.94
4541.42
4608.44
3186.47
3215.16
3251.56
3290.26
3327.95
3363.32
3395.31
3424.7
3452.02
3477.52
3501.88
3525.92
3549.07
3571.17
3593.06
3615.02
3636.42
3657.6
3678.26
3699.3
3720.63
3742.89
3765.39
3788.04
3811.03
3834.55
3858.77
3883.75
3909.77
3937.45
3967.56
4000.15
4035.38
4072.5
4112.18
4155.01
4201.46
4251.3
4308.05
4376.46
3020.34
3037.66
3065.22
3096.36
3128.1
3159.06
3187.7
3214.3
3239.3
3262.84
3285.35
3307.86
3330.04
3351.35
3372.34
3393.56
3414.38
3435.1
3455.32
3476.04
3497.17
3519.19
3541.64
3564.3
3587.48
3611.16
3635.64
3661.08
3687.33
3715.19
3745.48
3778.38
3814.02
3851.74
3892.03
3935.8
3983.19
4034.1
4091.79
4161.08
2871.67
2876.55
2896.5
2921.17
2947.51
2974.3
2999.8
3023.73
3046.53
3068.17
3088.9
3109.87
3130.94
3151.36
3171.44
3191.81
3212
3232.13
3251.85
3272.09
3292.88
3314.49
3336.75
3359.28
3382.49
3406.17
3430.71
3456.42
3482.82
3510.82
3541.06
3574.01
3609.85
3647.95
3688.56
3732.86
3780.93
3832.65
3891
3960.78
2734.2
2729.37
2743.11
2762.35
2783.88
2806.72
2829.26
2850.67
2871.38
2891.2
2910.26
2929.72
2949.57
2969.04
2988.18
3007.65
3027.13
3046.6
3065.77
3085.4
3105.73
3126.8
3148.73
3171.02
3194.12
3217.71
3242.15
3267.9
3294.38
3322.45
3352.51
3385.26
3421.06
3459.35
3500.08
3544.57
3593.04
3645.37
3704.14
3774.08
2595.91
2594.06
2603.09
2617.82
2635.15
2654.34
2674.05
2693.12
2711.82
2729.94
2747.44
2765.42
2783.98
2802.45
2820.66
2839.18
2857.89
2876.65
2895.23
2914.2
2933.95
2954.4
2975.86
2997.82
3020.67
3044.08
3068.32
3093.9
3120.36
3148.43
3178.21
3210.57
3246.08
3284.34
3325.08
3369.48
3418.07
3470.83
3529.81
3599.62
2466.5
2468.85
2474.8
2485.83
2499.56
2515.42
2532.42
2549.32
2566.11
2582.65
2598.69
2615.24
2632.5
2649.93
2667.22
2684.75
2702.63
2720.65
2738.62
2756.9
2776
2795.78
2816.69
2838.21
2860.68
2883.83
2907.77
2933.04
2959.32
2987.28
3016.73
3048.58
3083.56
3121.56
3162.19
3206.32
3254.81
3307.78
3366.78
3436.2
2352.74
2353.41
2356.94
2364.88
2375.54
2388.46
2402.9
2417.76
2432.74
2447.79
2462.49
2477.68
2493.64
2510
2526.38
2542.93
2559.93
2577.2
2594.51
2612.13
2630.55
2649.66
2669.92
2690.91
2712.9
2735.67
2759.25
2784.08
2810.03
2837.75
2866.81
2898.09
2932.37
2969.87
3010.24
3054.01
3102.2
3155.16
3214
3282.8
2246.65
2246.72
2248.36
2253.73
2261.76
2272.1
2284.17
2297.11
2310.39
2324.01
2337.5
2351.41
2366.1
2381.38
2396.86
2412.43
2428.52
2445.02
2461.68
2478.65
2496.4
2514.84
2534.41
2554.78
2576.19
2598.51
2621.65
2645.96
2671.44
2698.73
2727.38
2758.06
2791.53
2828.31
2868.23
2911.57
2959.3
3012.04
3070.55
3138.56
2151.34
2147.93
2148.08
2151.29
2157.06
2165.17
2175.1
2186.2
2197.9
2210.16
2222.53
2235.27
2248.73
2262.95
2277.53
2292.16
2307.29
2323.04
2339.06
2355.38
2372.48
2390.26
2409.09
2428.78
2449.52
2471.32
2493.97
2517.73
2542.61
2569.3
2597.47
2627.55
2660.19
2696.08
2735.35
2778.17
2825.32
2877.61
2935.66
3002.74
2064.87
2056.89
2055.23
2056.59
2060.44
2066.6
2074.64
2084.03
2094.25
2105.2
2116.52
2128.2
2140.52
2153.68
2167.37
2181.1
2195.3
2210.29
2225.68
2241.38
2257.83
2274.94
2293.02
2311.98
2332
2353.21
2375.32
2398.5
2422.73
2448.68
2476.25
2505.71
2537.53
2572.45
2610.91
2653.08
2699.54
2751.18
2808.64
2874.71
1982.53
1972.29
1968.95
1968.77
1971.01
1975.5
1981.89
1989.71
1998.55
2008.23
2018.55
2029.28
2040.56
2052.7
2065.47
2078.37
2091.7
2105.91
2120.67
2135.78
2151.56
2167.99
2185.32
2203.54
2222.8
2243.34
2264.89
2287.48
2311.07
2336.18
2363.03
2391.82
2422.83
2456.77
2494.28
2535.66
2581.33
2632.11
2688.87
2753.86
1904.05
1893.14
1888.46
1887.06
1887.98
1891.05
1896.02
1902.44
1910
1918.49
1927.84
1937.66
1948.03
1959.18
1971.04
1983.16
1995.69
2009.11
2023.24
2037.76
2052.87
2068.61
2085.21
2102.69
2121.18
2141
2161.94
2183.94
2206.9
2231.18
2257.2
2285.23
2315.42
2348.41
2384.9
2425.35
2470.1
2519.86
2575.79
2639.63
1829.17
1818.69
1813.12
1810.77
1810.65
1812.55
1816.3
1821.5
1827.91
1835.31
1843.69
1852.65
1862.17
1872.43
1883.39
1894.76
1906.57
1919.21
1932.68
1946.62
1961.07
1976.12
1991.99
2008.75
2026.5
2045.55
2065.85
2087.23
2109.57
2133.07
2158.22
2185.42
2214.73
2246.82
2282.23
2321.63
2365.32
2413.95
2468.92
2531.56
1757.56
1748.4
1742.39
1739.36
1738.45
1739.42
1742.14
1746.3
1751.68
1758.08
1765.52
1773.65
1782.39
1791.84
1801.94
1812.58
1823.72
1835.63
1848.41
1861.76
1875.55
1889.94
1905.09
1921.15
1938.17
1956.45
1976.05
1996.78
2018.51
2041.29
2065.6
2091.93
2120.36
2151.51
2185.85
2224.12
2266.61
2314.03
2367.87
2429.27
1688.79
1681.84
1675.81
1672.35
1670.86
1671.11
1672.97
1676.26
1680.76
1686.26
1692.81
1700.15
1708.14
1716.83
1726.14
1736.09
1746.6
1757.8
1769.88
1782.63
1795.8
1809.57
1824.01
1839.38
1855.67
1873.2
1892.06
1912.09
1933.21
1955.32
1978.86
2004.33
2031.85
2062.02
2095.3
2132.39
2173.62
2219.73
2272.29
2332.41
1626.64
1618.7
1612.98
1609.31
1607.41
1607.12
1608.3
1610.86
1614.61
1619.33
1625.07
1631.64
1638.92
1646.91
1655.5
1664.77
1674.67
1685.21
1696.6
1708.72
1721.28
1734.47
1748.26
1762.94
1778.51
1795.28
1813.37
1832.66
1853.13
1874.62
1897.46
1922.12
1948.76
1977.9
2010.1
2045.99
2085.95
2130.63
2181.8
2240.56
1568.55
1559.27
1553.57
1549.83
1547.69
1547.02
1547.67
1549.61
1552.73
1556.8
1561.81
1567.68
1574.3
1581.62
1589.55
1598.18
1607.47
1617.39
1628.1
1639.57
1651.54
1664.16
1677.36
1691.39
1706.25
1722.25
1739.54
1758.07
1777.82
1798.72
1820.89
1844.84
1870.62
1898.72
1929.82
1964.48
2003.16
2046.37
2096.04
2153.33
1509.37
1502.76
1497.29
1493.62
1491.37
1490.43
1490.69
1492.16
1494.75
1498.25
1502.65
1507.89
1513.89
1520.61
1527.94
1535.96
1544.65
1553.97
1564.01
1574.82
1586.2
1598.27
1610.91
1624.33
1638.51
1653.75
1670.22
1687.98
1706.98
1727.26
1748.81
1772.09
1797.05
1824.17
1854.13
1887.56
1924.94
1966.7
2014.77
2070.47
1452.83
1448.98
1443.93
1440.42
1438.16
1437.07
1437.05
1438.15
1440.32
1443.36
1447.24
1451.93
1457.38
1463.54
1470.33
1477.78
1485.89
1494.62
1504.01
1514.16
1524.95
1536.47
1548.55
1561.41
1574.95
1589.44
1605.11
1622.1
1640.35
1659.97
1680.89
1703.51
1727.74
1753.92
1782.79
1814.98
1851.07
1891.4
1937.78
1991.81
1403.47
1397.77
1393.26
1389.98
1387.79
1386.62
1386.42
1387.25
1389.09
1391.77
1395.22
1399.45
1404.41
1410.06
1416.35
1423.27
1430.83
1439
1447.76
1457.27
1467.46
1478.41
1489.94
1502.24
1515.2
1528.98
1543.88
1560.1
1577.61
1596.53
1616.81
1638.76
1662.29
1687.62
1715.46
1746.42
1781.24
1820.16
1864.87
1917.12
1354.53
1349.26
1345.09
1342.07
1340
1338.84
1338.53
1339.17
1340.75
1343.15
1346.27
1350.1
1354.62
1359.82
1365.64
1372.08
1379.13
1386.77
1394.94
1403.84
1413.44
1423.78
1434.76
1446.51
1458.91
1472.04
1486.2
1501.68
1518.47
1536.68
1556.25
1577.52
1600.36
1624.95
1651.8
1681.6
1715.16
1752.71
1795.81
1846.2
1305.38
1302.96
1299.25
1296.54
1294.63
1293.53
1293.19
1293.7
1295.07
1297.26
1300.12
1303.64
1307.76
1312.55
1317.95
1323.93
1330.5
1337.66
1345.3
1353.62
1362.66
1372.39
1382.79
1393.99
1405.87
1418.4
1431.88
1446.66
1462.75
1480.22
1499.07
1519.6
1541.75
1565.65
1591.61
1620.34
1652.65
1688.9
1730.43
1778.97
1263.62
1258.79
1255.6
1253.21
1251.51
1250.52
1250.2
1250.64
1251.85
1253.87
1256.53
1259.79
1263.58
1267.97
1272.99
1278.56
1284.7
1291.4
1298.59
1306.39
1314.89
1324.01
1333.83
1344.49
1355.86
1367.85
1380.72
1394.8
1410.23
1426.96
1445.06
1464.84
1486.29
1509.5
1534.68
1562.41
1593.55
1628.54
1668.56
1715.3
1220.56
1216.79
1214.01
1211.96
1210.46
1209.61
1209.35
1209.77
1210.87
1212.75
1215.23
1218.28
1221.79
1225.85
1230.51
1235.71
1241.46
1247.76
1254.52
1261.86
1269.86
1278.42
1287.67
1297.77
1308.64
1320.16
1332.46
1345.89
1360.64
1376.66
1394.02
1413.03
1433.74
1456.28
1480.72
1507.56
1537.61
1571.38
1609.99
1654.96
1176.33
1176.59
1174.38
1172.68
1171.41
1170.7
1170.52
1170.95
1171.99
1173.73
1176.06
1178.93
1182.21
1186
1190.34
1195.22
1200.62
1206.55
1212.93
1219.84
1227.41
1235.46
1244.17
1253.73
1264.08
1275.15
1286.94
1299.75
1313.84
1329.17
1345.81
1364.06
1384.03
1405.87
1429.62
1455.64
1484.69
1517.33
1554.57
1597.86
1139.47
1138.37
1136.63
1135.26
1134.24
1133.67
1133.59
1134.05
1135.04
1136.68
1138.87
1141.56
1144.68
1148.25
1152.32
1156.91
1162
1167.6
1173.66
1180.19
1187.34
1194.97
1203.19
1212.22
1222.05
1232.68
1244
1256.23
1269.68
1284.34
1300.3
1317.8
1337.03
1358.14
1381.22
1406.48
1434.65
1466.23
1502.19
1543.89
1104.72
1102.36
1100.65
1099.54
1098.78
1098.38
1098.41
1098.91
1099.89
1101.44
1103.49
1106.03
1109.02
1112.43
1116.28
1120.62
1125.43
1130.74
1136.49
1142.68
1149.47
1156.72
1164.52
1173.07
1182.39
1192.56
1203.44
1215.13
1227.98
1241.99
1257.31
1274.09
1292.58
1312.95
1335.35
1359.91
1387.27
1417.89
1452.68
1492.89
1072.67
1067.71
1066.25
1065.41
1064.92
1064.7
1064.85
1065.43
1066.42
1067.9
1069.86
1072.27
1075.13
1078.41
1082.09
1086.22
1090.78
1095.83
1101.3
1107.2
1113.67
1120.59
1128.01
1136.13
1144.99
1154.69
1165.14
1176.35
1188.63
1202.04
1216.73
1232.82
1250.59
1270.21
1291.91
1315.79
1342.42
1372.23
1405.93
1444.67
1037.76
1034.4
1033.27
1032.72
1032.51
1032.51
1032.81
1033.48
1034.51
1035.97
1037.86
1040.15
1042.91
1046.08
1049.61
1053.56
1057.92
1062.72
1067.96
1073.6
1079.78
1086.42
1093.52
1101.27
1109.71
1118.94
1128.97
1139.74
1151.49
1164.34
1178.43
1193.87
1210.93
1229.79
1250.78
1273.99
1299.97
1328.89
1361.51
1398.79
1000.58
1002.14
1001.61
1001.37
1001.44
1001.68
1002.17
1002.96
1004.07
1005.53
1007.39
1009.61
1012.27
1015.33
1018.74
1022.53
1026.71
1031.31
1036.34
1041.76
1047.68
1054.07
1060.91
1068.35
1076.41
1085.21
1094.8
1105.16
1116.44
1128.77
1142.29
1157.1
1173.47
1191.6
1211.87
1234.46
1259.62
1287.54
1319.03
1354.87
971.215
971.367
971.257
971.296
971.639
972.155
972.846
973.793
975.004
976.515
978.377
980.555
983.128
986.076
989.376
993.031
997.057
1001.48
1006.35
1011.58
1017.27
1023.44
1030.06
1037.23
1044.96
1053.38
1062.56
1072.53
1083.38
1095.21
1108.2
1122.43
1138.15
1155.57
1175.14
1196.98
1221.14
1248.06
1278.35
1312.79
943.347
942.317
942.159
942.438
943.045
943.829
944.753
945.871
947.213
948.803
950.696
952.867
955.372
958.214
961.41
964.945
968.843
973.118
977.831
982.908
988.413
994.384
1000.81
1007.76
1015.22
1023.3
1032.12
1041.7
1052.14
1063.53
1076.03
1089.73
1104.86
1121.61
1140.41
1161.29
1184.5
1210.34
1239.45
1272.47
917.738
914.151
914.2
914.762
915.633
916.673
917.833
919.137
920.622
922.308
924.255
926.444
928.909
931.664
934.772
938.202
941.984
946.124
950.697
955.633
960.987
966.79
973.049
979.819
987.071
994.863
1003.36
1012.58
1022.64
1033.62
1045.66
1058.89
1073.49
1089.57
1107.47
1127.38
1149.58
1174.37
1202.31
1233.93
888.794
886.849
887.308
888.218
889.363
890.644
892.025
893.525
895.157
896.943
898.95
901.174
903.626
906.331
909.371
912.717
916.4
920.406
924.841
929.651
934.874
940.533
946.658
953.282
960.385
967.937
976.164
985.054
994.744
1005.34
1016.92
1029.62
1043.66
1059.06
1076.11
1095.04
1116.24
1140.03
1166.84
1197.18
856.774
860.2
861.473
862.782
864.206
865.712
867.291
868.975
870.755
872.636
874.698
876.965
879.433
882.123
885.126
888.406
892.005
895.897
900.196
904.879
909.986
915.517
921.532
928.022
934.97
942.345
950.325
958.922
968.234
978.425
989.514
1001.64
1015.04
1029.81
1046.11
1064.17
1084.41
1107.23
1132.96
1162.11
832.334
834.895
836.806
838.462
840.143
841.852
843.61
845.456
847.37
849.327
851.433
853.748
856.258
858.971
861.963
865.201
868.733
872.533
876.713
881.267
886.268
891.657
897.492
903.788
910.545
917.762
925.505
933.832
942.791
952.582
963.236
974.836
987.606
1001.74
1017.35
1034.64
1053.98
1075.85
1100.56
1128.59
808.639
811.277
813.34
815.214
817.076
818.953
820.858
822.817
824.855
826.936
829.104
831.468
834.032
836.795
839.796
843.015
846.505
850.235
854.319
858.732
863.589
868.806
874.406
880.46
886.987
894.02
901.523
909.608
918.268
927.704
937.98
949.127
961.307
974.811
989.771
1006.34
1024.83
1045.8
1069.52
1096.45
786.237
788.558
790.898
792.904
794.866
796.857
798.866
800.906
803.045
805.29
807.578
810.016
812.63
815.426
818.436
821.646
825.102
828.787
832.819
837.108
841.795
846.85
852.251
858.09
864.372
871.178
878.443
886.289
894.681
903.784
913.711
924.465
936.135
949.032
963.362
979.23
996.931
1017.01
1039.76
1065.63
764.629
767.109
769.354
771.404
773.423
775.477
777.558
779.684
781.904
784.277
786.71
789.25
791.922
794.733
797.738
800.935
804.353
808.013
812.003
816.234
820.797
825.717
830.966
836.625
842.683
849.252
856.278
863.885
872.027
880.824
890.41
900.813
912.046
924.403
938.126
953.321
970.278
989.458
1011.24
1036.03
744.511
746.298
748.575
750.638
752.698
754.799
756.948
759.159
761.458
763.922
766.477
769.127
771.875
774.721
777.728
780.906
784.286
787.913
791.845
796.04
800.519
805.331
810.475
815.987
821.858
828.209
835.015
842.398
850.313
858.838
868.099
878.158
889.03
900.913
914.074
928.624
944.859
963.166
983.964
1007.65
725.406
726.604
728.484
730.526
732.635
734.806
737.032
739.331
741.718
744.246
746.9
749.64
752.462
755.366
758.397
761.578
764.939
768.531
772.393
776.534
780.948
785.668
790.719
796.112
801.831
807.993
814.597
821.769
829.465
837.755
846.72
856.442
866.992
878.473
891.137
905.079
920.633
938.107
957.936
980.511
708.254
707.161
708.901
710.986
713.199
715.488
717.825
720.226
722.708
725.287
728.007
730.808
733.69
736.663
739.753
742.978
746.351
749.935
753.73
757.794
762.133
766.76
771.7
776.971
782.568
788.566
794.986
801.936
809.418
817.487
826.199
835.611
845.856
856.991
869.231
882.645
897.559
914.275
933.16
954.635
688.623
687.972
689.71
691.931
694.307
696.755
699.233
701.761
704.349
706.995
709.76
712.61
715.533
718.582
721.747
725.042
728.456
732.055
735.809
739.799
744.054
748.587
753.411
758.553
764.041
769.885
776.141
782.878
790.13
797.98
806.45
815.587
825.532
836.367
848.229
861.18
875.516
891.545
909.556
929.981
663.506
668.4
670.858
673.354
675.925
678.54
681.166
683.833
686.537
689.281
692.105
695.014
697.983
701.098
704.33
707.697
711.165
714.799
718.564
722.515
726.702
731.153
735.87
740.883
746.248
751.951
758.04
764.568
771.581
779.188
787.42
796.287
805.933
816.485
828.015
840.563
854.395
869.819
887.053
906.513
645.654
649.616
652.576
655.317
658.066
660.823
663.59
666.388
669.205
672.052
674.963
677.95
680.994
684.169
687.462
690.892
694.42
698.094
701.898
705.85
709.996
714.381
719.009
723.908
729.138
734.71
740.639
746.961
753.747
761.109
769.098
777.698
787.049
797.317
808.543
820.746
834.141
849.031
865.591
884.165
628.157
632.141
635.035
637.889
640.749
643.607
646.477
649.374
652.297
655.246
658.258
661.348
664.487
667.737
671.096
674.581
678.162
681.874
685.712
689.681
693.813
698.16
702.722
707.538
712.646
718.089
723.881
730.026
736.605
743.733
751.478
759.82
768.874
778.849
789.77
801.649
814.651
829.07
845.036
862.847
611.701
615.099
618.184
621.121
624.044
626.965
629.904
632.87
635.874
638.917
642.016
645.204
648.442
651.777
655.207
658.739
662.368
666.11
669.972
673.963
678.1
682.428
686.947
691.703
696.711
702.045
707.719
713.717
720.124
727.028
734.539
742.64
751.405
761.065
771.67
783.224
795.86
809.854
825.306
842.466
595.475
599.163
602.071
605.021
607.987
610.952
613.941
616.957
620.011
623.125
626.289
629.538
632.858
636.258
639.748
643.323
646.992
650.755
654.637
658.645
662.787
667.109
671.597
676.309
681.244
686.494
692.079
697.964
704.236
710.958
718.254
726.13
734.628
743.967
754.239
765.466
777.747
791.34
806.327
822.928
580.244
583.471
586.564
589.549
592.548
595.547
598.577
601.631
604.723
607.883
611.092
614.374
617.744
621.179
624.704
628.308
632.005
635.787
639.679
643.696
647.834
652.155
656.623
661.305
666.194
671.381
676.896
682.715
688.88
695.466
702.58
710.257
718.515
727.548
737.491
748.377
760.303
773.498
788.049
804.142
565.151
568.792
571.704
574.684
577.703
580.73
583.797
586.887
590.012
593.198
596.432
599.721
603.1
606.54
610.071
613.675
617.378
621.171
625.072
629.091
633.233
637.549
642.007
646.668
651.528
656.67
662.125
667.888
673.985
680.466
687.44
694.953
703.006
711.773
721.398
731.939
743.503
756.302
770.422
786.032
551.041
554.237
557.352
560.367
563.408
566.462
569.558
572.679
575.831
579.031
582.281
585.571
588.931
592.355
595.865
599.45
603.136
606.926
610.826
614.85
618.998
623.312
627.763
632.403
637.245
642.346
647.752
653.455
659.493
665.906
672.769
680.142
688.031
696.578
705.92
716.133
727.349
739.751
753.438
768.579
536.94
540.633
543.553
546.551
549.609
552.68
555.794
558.935
562.105
565.316
568.574
571.866
575.209
578.614
582.098
585.66
589.316
593.094
596.982
600.996
605.148
609.462
613.91
618.534
623.359
628.422
633.781
639.422
645.391
651.744
658.518
665.764
673.518
681.888
690.995
700.912
711.8
723.824
737.078
751.745
523.817
527.025
530.149
533.182
536.257
539.343
542.463
545.616
548.795
552.014
555.275
558.558
561.889
565.273
568.734
572.272
575.902
579.653
583.522
587.52
591.663
595.974
600.423
605.042
609.857
614.895
620.21
625.789
631.686
637.964
644.658
651.787
659.414
667.635
676.546
686.205
696.793
708.458
721.302
735.503
510.589
514.313
517.204
520.209
523.28
526.379
529.504
532.663
535.846
539.065
542.331
545.609
548.929
552.299
555.746
559.268
562.878
566.603
570.441
574.417
578.538
582.834
587.278
591.891
596.698
601.719
607.006
612.537
618.366
624.56
631.166
638.184
645.685
653.767
662.505
671.939
682.252
693.593
706.046
719.805
498.323
501.468
504.549
507.58
510.652
513.758
516.888
520.044
523.227
526.438
529.702
532.979
536.302
539.667
543.107
546.624
550.219
553.926
557.735
561.675
565.765
570.034
574.456
579.053
583.844
588.853
594.117
599.617
605.393
611.51
618.029
624.945
632.323
640.271
648.847
658.081
668.142
679.184
691.278
704.615
485.83
489.487
492.327
495.327
498.387
501.495
504.621
507.764
510.943
514.141
517.393
520.671
523.996
527.366
530.802
534.314
537.9
541.59
545.374
549.282
553.331
557.553
561.942
566.506
571.267
576.253
581.493
586.969
592.711
598.773
605.221
612.049
619.315
627.132
635.559
644.609
654.434
665.194
676.946
689.876
474.046
477.232
480.376
483.452
486.523
489.621
492.727
495.848
499.008
502.19
505.424
508.698
512.022
515.397
518.834
522.342
525.92
529.593
533.357
537.234
541.248
545.42
549.76
554.278
558.991
563.936
569.129
574.575
580.287
586.306
592.697
599.453
606.625
614.324
622.613
631.498
641.103
651.589
663.021
675.56
461.295
465.864
468.978
472.073
475.144
478.212
481.283
484.376
487.5
490.651
493.859
497.113
500.426
503.799
507.233
510.735
514.305
517.962
521.714
525.567
529.551
533.679
537.966
542.423
547.07
551.956
557.08
562.468
568.132
574.1
580.433
587.128
594.217
601.816
609.984
618.721
628.136
638.375
649.502
661.671
451.267
454.858
458.137
461.234
464.271
467.291
470.313
473.362
476.443
479.557
482.727
485.953
489.234
492.586
496.009
499.498
503.056
506.698
510.436
514.268
518.23
522.317
526.551
530.947
535.521
540.333
545.384
550.689
556.284
562.183
568.446
575.076
582.09
589.592
597.655
606.263
615.511
625.535
636.395
648.214
444.155
445.109
448.055
450.99
453.931
456.877
459.841
462.834
465.866
468.938
472.062
475.243
478.482
481.789
485.181
488.642
492.177
495.797
499.519
503.328
507.269
511.329
515.525
519.872
524.387
529.124
534.098
539.312
544.81
550.625
556.794
563.332
570.256
577.654
585.597
594.08
603.177
613.015
623.632
635.151
433.987
435.91
438.494
441.245
444.076
446.944
449.844
452.78
455.758
458.779
461.853
464.979
468.163
471.416
474.758
478.175
481.676
485.262
488.957
492.741
496.664
500.7
504.866
509.174
513.639
518.312
523.211
528.334
533.724
539.433
545.496
551.919
558.727
566.004
573.811
582.152
591.104
600.769
611.182
622.432
424.858
426.324
429.119
431.843
434.604
437.404
440.237
443.111
446.029
448.994
452.007
455.076
458.2
461.395
464.676
468.032
471.478
475.014
478.658
482.403
486.289
490.295
494.431
498.704
503.133
507.755
512.595
517.643
522.944
528.553
534.51
540.818
547.504
554.652
562.316
570.504
579.295
588.79
599.004
610.021
415.45
417.666
420.176
422.798
425.481
428.208
430.974
433.781
436.629
439.533
442.479
445.484
448.544
451.669
454.879
458.166
461.537
465.001
468.579
472.259
476.086
480.052
484.15
488.393
492.795
497.382
502.179
507.176
512.411
517.937
523.803
530.007
536.58
543.601
551.119
559.151
567.774
577.081
587.1
597.886
407.035
408.675
411.398
414.03
416.663
419.328
422.024
424.761
427.536
430.369
433.246
436.18
439.172
442.227
445.361
448.576
451.874
455.266
458.764
462.371
466.127
470.026
474.069
478.263
482.621
487.171
491.925
496.877
502.058
507.512
513.295
519.412
525.88
532.786
540.17
548.046
556.502
565.622
575.435
586.001
398.325
400.699
403.1
405.609
408.164
410.757
413.378
416.037
418.736
421.489