/*--------------------------------*- C++ -*----------------------------------*\
| =========                 |                                                 |
| \\      /  F ield         | OpenFOAM: The Open Source CFD Toolbox           |
|  \\    /   O peration     | Version:  2506                                  |
|   \\  /    A nd           | Website:  www.openfoam.com                      |
|    \\/     M anipulation  |                                                 |
\*---------------------------------------------------------------------------*/
FoamFile
{
    version     2.0;
    format      ascii;
    arch        "LSB;label=32;scalar=64";
    class       volScalarField;
    location    "6000";
    object      R;
}
// * * * * * * * * * * * * * * * * * * * * * * * * * * * * * * * * * * * * * //

dimensions      [0 2 -3 0 0 0 0];

internalField   nonuniform List<scalar> 
72100
(
-2.84911e-05
-2.4285e-05
-2.24533e-05
-2.32191e-05
-2.3116e-05
-2.33048e-05
-2.33272e-05
-2.32529e-05
-2.31692e-05
-2.31906e-05
-2.33789e-05
-2.35968e-05
-2.38623e-05
-2.41382e-05
-2.42149e-05
-2.41762e-05
-2.42047e-05
-2.44516e-05
-3.33414e-05
-3.10049e-05
-2.63855e-05
-3.5925e-05
-2.89627e-05
-3.08174e-05
-3.33089e-05
-2.71534e-05
-3.6501e-05
-2.6967e-05
-3.65503e-05
-2.73604e-05
-3.6512e-05
-2.7516e-05
-3.73531e-05
-2.78527e-05
-3.62213e-05
-3.05644e-05
-3.31697e-05
-3.44934e-05
-3.03452e-05
-3.99461e-05
-0.000111114
-8.67207e-05
-8.23187e-05
-7.9877e-05
-7.86411e-05
-7.80243e-05
-7.70887e-05
-7.6005e-05
-7.49305e-05
-7.40596e-05
-7.35261e-05
-7.30693e-05
-7.27113e-05
-7.24338e-05
-7.17328e-05
-7.07607e-05
-6.9875e-05
-6.93483e-05
-6.95007e-05
-6.98939e-05
-6.92773e-05
-6.87278e-05
-6.80825e-05
-6.64915e-05
-6.68588e-05
-6.5404e-05
-6.48433e-05
-6.31185e-05
-6.30588e-05
-6.19724e-05
-6.14402e-05
-6.01691e-05
-5.94669e-05
-5.81025e-05
-5.80428e-05
-5.63433e-05
-5.54033e-05
-5.34963e-05
-5.21374e-05
-5.04437e-05
-6.11923e-05
-7.15709e-05
-6.76214e-05
-6.57824e-05
-6.48412e-05
-6.43722e-05
-6.36212e-05
-6.27648e-05
-6.19032e-05
-6.1203e-05
-6.07793e-05
-6.0416e-05
-6.01388e-05
-5.99501e-05
-5.94051e-05
-5.86415e-05
-5.79611e-05
-5.75294e-05
-5.73275e-05
-5.73e-05
-5.71901e-05
-5.67226e-05
-5.63281e-05
-5.59878e-05
-5.46969e-05
-5.42468e-05
-5.33063e-05
-5.2721e-05
-5.23597e-05
-5.1922e-05
-5.12223e-05
-5.05327e-05
-4.94758e-05
-4.87005e-05
-4.79162e-05
-4.73615e-05
-4.62007e-05
-4.54277e-05
-4.40436e-05
-4.22206e-05
-5.11638e-05
-4.7851e-05
-4.53462e-05
-4.42391e-05
-4.37039e-05
-4.34564e-05
-4.29985e-05
-4.2451e-05
-4.19065e-05
-4.14686e-05
-4.12581e-05
-4.10716e-05
-4.09353e-05
-4.09388e-05
-4.06785e-05
-4.02773e-05
-3.99184e-05
-3.97209e-05
-3.97603e-05
-3.96542e-05
-3.97945e-05
-3.97343e-05
-3.95806e-05
-3.90148e-05
-3.89478e-05
-3.84787e-05
-3.83101e-05
-3.77126e-05
-3.77405e-05
-3.75225e-05
-3.72172e-05
-3.68577e-05
-3.63727e-05
-3.5783e-05
-3.56883e-05
-3.49977e-05
-3.45231e-05
-3.39103e-05
-3.32918e-05
-3.24167e-05
-6.38485e-05
-2.73636e-05
-2.64155e-05
-2.58698e-05
-2.56034e-05
-2.54816e-05
-2.51444e-05
-2.48222e-05
-2.45489e-05
-2.42968e-05
-2.4223e-05
-2.41501e-05
-2.41161e-05
-2.427e-05
-2.42799e-05
-2.41426e-05
-2.40286e-05
-2.41321e-05
-2.43464e-05
-2.44903e-05
-2.45382e-05
-2.45177e-05
-2.4865e-05
-2.51471e-05
-2.43897e-05
-2.47957e-05
-2.42702e-05
-2.45576e-05
-2.44751e-05
-2.48707e-05
-2.46125e-05
-2.48101e-05
-2.4291e-05
-2.43703e-05
-2.39404e-05
-2.44082e-05
-2.39346e-05
-2.40621e-05
-2.37643e-05
-2.30313e-05
-2.77954e-05
-1.77119e-05
-1.62083e-05
-1.60777e-05
-1.59472e-05
-1.58584e-05
-1.54941e-05
-1.52674e-05
-1.52272e-05
-1.5037e-05
-1.49291e-05
-1.48625e-05
-1.48395e-05
-1.50512e-05
-1.52003e-05
-1.51425e-05
-1.51213e-05
-1.54442e-05
-1.57351e-05
-1.59752e-05
-1.62588e-05
-1.60516e-05
-1.64349e-05
-1.6304e-05
-1.72097e-05
-1.66916e-05
-1.76134e-05
-1.68893e-05
-1.76177e-05
-1.73898e-05
-1.79078e-05
-1.76331e-05
-1.81045e-05
-1.73719e-05
-1.82218e-05
-1.74376e-05
-1.76538e-05
-1.76528e-05
-1.77504e-05
-1.80947e-05
-3.55766e-05
-1.29511e-05
-1.31604e-05
-1.34258e-05
-1.34098e-05
-1.33615e-05
-1.29424e-05
-1.2743e-05
-1.29062e-05
-1.28234e-05
-1.26075e-05
-1.24552e-05
-1.24589e-05
-1.26544e-05
-1.27869e-05
-1.26647e-05
-1.26399e-05
-1.30774e-05
-1.33531e-05
-1.35245e-05
-1.38017e-05
-1.39362e-05
-1.35687e-05
-1.39769e-05
-1.35139e-05
-1.44033e-05
-1.32852e-05
-1.44716e-05
-1.3601e-05
-1.48912e-05
-1.41378e-05
-1.52183e-05
-1.41595e-05
-1.52462e-05
-1.44706e-05
-1.53348e-05
-1.50095e-05
-1.51495e-05
-1.54396e-05
-1.46635e-05
-5.23791e-05
-9.4101e-06
-1.11597e-05
-1.17333e-05
-1.19295e-05
-1.20112e-05
-1.17407e-05
-1.15291e-05
-1.16972e-05
-1.1726e-05
-1.15509e-05
-1.14525e-05
-1.14007e-05
-1.15056e-05
-1.15376e-05
-1.15367e-05
-1.14999e-05
-1.18116e-05
-1.20716e-05
-1.21516e-05
-1.24211e-05
-1.24754e-05
-1.24376e-05
-1.17485e-05
-1.27722e-05
-1.25099e-05
-1.37305e-05
-1.28543e-05
-1.40916e-05
-1.32433e-05
-1.43734e-05
-1.36875e-05
-1.47742e-05
-1.35423e-05
-1.43956e-05
-1.3636e-05
-1.372e-05
-1.42734e-05
-1.39722e-05
-1.45416e-05
-5.51023e-05
-9.42069e-06
-1.0702e-05
-1.14626e-05
-1.17573e-05
-1.19317e-05
-1.17569e-05
-1.1742e-05
-1.18356e-05
-1.20347e-05
-1.19306e-05
-1.17978e-05
-1.18621e-05
-1.18161e-05
-1.17183e-05
-1.16726e-05
-1.1809e-05
-1.19532e-05
-1.21171e-05
-1.21453e-05
-1.24176e-05
-1.24268e-05
-1.22495e-05
-1.2325e-05
-1.15165e-05
-1.24597e-05
-1.14984e-05
-1.27369e-05
-1.1838e-05
-1.29595e-05
-1.23025e-05
-1.35017e-05
-1.25703e-05
-1.35882e-05
-1.28787e-05
-1.35611e-05
-1.34465e-05
-1.34568e-05
-1.36503e-05
-1.27384e-05
-4.65693e-05
-7.43059e-06
-9.07491e-06
-9.93095e-06
-1.03128e-05
-1.06001e-05
-1.06425e-05
-1.06726e-05
-1.06293e-05
-1.08685e-05
-1.09513e-05
-1.10228e-05
-1.10123e-05
-1.0762e-05
-1.058e-05
-1.07052e-05
-1.08549e-05
-1.07919e-05
-1.10009e-05
-1.10052e-05
-1.11716e-05
-1.12727e-05
-1.10615e-05
-1.0895e-05
-1.10489e-05
-1.09549e-05
-1.20251e-05
-1.13821e-05
-1.21302e-05
-1.15665e-05
-1.23347e-05
-1.22066e-05
-1.28995e-05
-1.23164e-05
-1.29379e-05
-1.21666e-05
-1.26061e-05
-1.271e-05
-1.24669e-05
-1.27625e-05
-4.55753e-05
-5.46724e-06
-8.04935e-06
-8.94169e-06
-9.39595e-06
-9.70045e-06
-9.78945e-06
-9.96925e-06
-9.93338e-06
-1.01499e-05
-1.03446e-05
-1.04721e-05
-1.0537e-05
-1.018e-05
-9.93911e-06
-9.96249e-06
-1.02397e-05
-1.01449e-05
-1.02671e-05
-1.02971e-05
-1.04881e-05
-1.04911e-05
-1.0361e-05
-1.02017e-05
-1.00628e-05
-1.04647e-05
-9.95849e-06
-1.0771e-05
-1.06041e-05
-1.07834e-05
-1.07686e-05
-1.14348e-05
-1.11669e-05
-1.17144e-05
-1.13348e-05
-1.17738e-05
-1.17151e-05
-1.20138e-05
-1.1786e-05
-1.09758e-05
-5.17291e-05
-4.35347e-06
-6.8076e-06
-7.72107e-06
-8.27361e-06
-8.57e-06
-8.7426e-06
-8.95237e-06
-8.93417e-06
-9.05023e-06
-9.26953e-06
-9.51384e-06
-9.63135e-06
-9.22582e-06
-8.90956e-06
-8.97154e-06
-9.29055e-06
-9.13681e-06
-9.22093e-06
-9.34602e-06
-9.4787e-06
-9.47972e-06
-9.39729e-06
-9.20843e-06
-9.21989e-06
-9.40525e-06
-9.62241e-06
-9.76191e-06
-9.96521e-06
-9.74639e-06
-9.85818e-06
-1.02782e-05
-1.03941e-05
-1.065e-05
-1.08689e-05
-1.0551e-05
-1.11738e-05
-1.06279e-05
-1.08647e-05
-1.04834e-05
-4.15016e-05
-3.36757e-06
-5.73881e-06
-6.66939e-06
-7.29143e-06
-7.57296e-06
-7.72995e-06
-7.9363e-06
-7.97729e-06
-8.0636e-06
-8.28023e-06
-8.48019e-06
-8.59318e-06
-8.30245e-06
-7.99921e-06
-8.04077e-06
-8.32904e-06
-8.24772e-06
-8.20338e-06
-8.36595e-06
-8.64887e-06
-8.60885e-06
-8.51363e-06
-8.40636e-06
-8.38819e-06
-8.6058e-06
-8.57952e-06
-8.88554e-06
-9.21134e-06
-8.87029e-06
-9.16585e-06
-9.22664e-06
-9.50729e-06
-9.70124e-06
-9.86163e-06
-9.82649e-06
-1.0034e-05
-1.01929e-05
-9.96063e-06
-9.58235e-06
-5.15515e-05
-2.96446e-06
-4.98622e-06
-5.88437e-06
-6.58238e-06
-6.86223e-06
-6.97515e-06
-7.16573e-06
-7.21063e-06
-7.31615e-06
-7.49428e-06
-7.58611e-06
-7.6915e-06
-7.61998e-06
-7.31939e-06
-7.31638e-06
-7.63458e-06
-7.58554e-06
-7.47398e-06
-7.68999e-06
-8.03242e-06
-7.93472e-06
-7.95765e-06
-7.69584e-06
-7.83629e-06
-8.07737e-06
-7.96562e-06
-8.23976e-06
-8.55886e-06
-8.34064e-06
-8.30611e-06
-8.55148e-06
-8.52505e-06
-8.98531e-06
-9.03339e-06
-9.18402e-06
-9.40009e-06
-9.18244e-06
-9.38155e-06
-8.83523e-06
-5.33182e-05
-2.63619e-06
-4.32871e-06
-5.23199e-06
-5.91279e-06
-6.20637e-06
-6.26356e-06
-6.48223e-06
-6.46597e-06
-6.56463e-06
-6.82004e-06
-6.69295e-06
-6.89505e-06
-6.96215e-06
-6.77256e-06
-6.70104e-06
-7.02875e-06
-6.9648e-06
-6.69981e-06
-7.03301e-06
-7.31585e-06
-7.34889e-06
-7.34135e-06
-7.10659e-06
-7.34686e-06
-7.5849e-06
-7.45681e-06
-7.49546e-06
-7.95402e-06
-7.74061e-06
-7.79975e-06
-7.87351e-06
-7.89128e-06
-8.15914e-06
-8.43879e-06
-8.55079e-06
-8.90973e-06
-8.47376e-06
-8.58425e-06
-8.30825e-06
-3.76922e-05
-2.28975e-06
-3.72121e-06
-4.62779e-06
-5.21478e-06
-5.60689e-06
-5.58972e-06
-5.81645e-06
-5.70638e-06
-5.84347e-06
-6.18309e-06
-5.93325e-06
-6.06172e-06
-6.31907e-06
-6.31046e-06
-6.14518e-06
-6.44129e-06
-6.46777e-06
-6.03202e-06
-6.30629e-06
-6.64256e-06
-6.7685e-06
-6.71704e-06
-6.64275e-06
-6.83746e-06
-7.15919e-06
-6.94953e-06
-6.90004e-06
-7.28432e-06
-7.23536e-06
-7.33197e-06
-7.39593e-06
-7.40716e-06
-7.51299e-06
-7.90526e-06
-8.05918e-06
-8.40361e-06
-7.99289e-06
-7.95445e-06
-7.7596e-06
-4.98866e-05
-1.89447e-06
-3.26485e-06
-4.10406e-06
-4.69225e-06
-5.14612e-06
-5.11017e-06
-5.39262e-06
-5.19471e-06
-5.28598e-06
-5.64124e-06
-5.48924e-06
-5.5549e-06
-5.87685e-06
-5.87719e-06
-5.77637e-06
-6.04324e-06
-6.13716e-06
-5.63076e-06
-5.73148e-06
-6.12517e-06
-6.3032e-06
-6.17995e-06
-6.17041e-06
-6.48639e-06
-6.74963e-06
-6.49179e-06
-6.38609e-06
-6.66356e-06
-6.76288e-06
-6.92389e-06
-7.02011e-06
-7.01212e-06
-7.07266e-06
-7.3666e-06
-7.57732e-06
-7.96774e-06
-7.67582e-06
-7.53415e-06
-7.28265e-06
-4.65525e-05
-1.49844e-06
-2.81264e-06
-3.62207e-06
-4.20325e-06
-4.75002e-06
-4.6902e-06
-4.9865e-06
-4.87485e-06
-4.78596e-06
-5.2326e-06
-5.18173e-06
-5.24565e-06
-5.45766e-06
-5.47246e-06
-5.56233e-06
-5.74928e-06
-5.84816e-06
-5.27242e-06
-5.30874e-06
-5.72581e-06
-5.88885e-06
-5.67054e-06
-5.78106e-06
-6.146e-06
-6.33592e-06
-6.07717e-06
-5.88214e-06
-6.1848e-06
-6.29628e-06
-6.53954e-06
-6.61623e-06
-6.77426e-06
-6.73845e-06
-6.82771e-06
-7.1164e-06
-7.45344e-06
-7.16493e-06
-7.25382e-06
-6.92949e-06
-3.55047e-05
-1.2527e-06
-2.46324e-06
-3.28395e-06
-3.79814e-06
-4.46695e-06
-4.29433e-06
-4.60223e-06
-4.6775e-06
-4.36423e-06
-4.9698e-06
-4.89358e-06
-4.99597e-06
-5.06661e-06
-5.16136e-06
-5.41214e-06
-5.51816e-06
-5.60223e-06
-5.01809e-06
-5.05413e-06
-5.45044e-06
-5.45583e-06
-5.2166e-06
-5.53071e-06
-5.79245e-06
-5.91021e-06
-5.77575e-06
-5.47918e-06
-5.83477e-06
-5.87665e-06
-6.15147e-06
-6.14132e-06
-6.51441e-06
-6.46285e-06
-6.54007e-06
-6.75715e-06
-7.10747e-06
-7.12075e-06
-7.0071e-06
-6.48731e-06
-5.7943e-05
-7.80476e-07
-2.0697e-06
-2.90028e-06
-3.45671e-06
-4.10515e-06
-3.9894e-06
-4.14593e-06
-4.47699e-06
-4.04041e-06
-4.64963e-06
-4.60284e-06
-4.57092e-06
-4.63028e-06
-4.72956e-06
-5.08061e-06
-5.23754e-06
-5.28393e-06
-4.77076e-06
-4.85508e-06
-5.1748e-06
-5.01883e-06
-4.87671e-06
-5.06141e-06
-5.4893e-06
-5.47613e-06
-5.57273e-06
-5.22321e-06
-5.51352e-06
-5.52833e-06
-5.70932e-06
-5.73298e-06
-6.15575e-06
-6.18914e-06
-6.14597e-06
-6.19728e-06
-6.69432e-06
-6.55108e-06
-6.80823e-06
-6.40709e-06
-2.81066e-05
-8.72338e-07
-1.8836e-06
-2.7506e-06
-3.15133e-06
-3.81038e-06
-3.84509e-06
-3.91793e-06
-4.29513e-06
-3.94035e-06
-4.40463e-06
-4.33936e-06
-4.21165e-06
-4.24722e-06
-4.40725e-06
-4.64198e-06
-4.80041e-06
-4.95221e-06
-4.615e-06
-4.75556e-06
-4.88365e-06
-4.72733e-06
-4.56411e-06
-4.85002e-06
-5.2529e-06
-5.17815e-06
-5.42754e-06
-5.04083e-06
-5.25071e-06
-5.2052e-06
-5.38486e-06
-5.46228e-06
-5.8106e-06
-5.95653e-06
-5.80914e-06
-5.93424e-06
-6.20113e-06
-6.34503e-06
-6.44517e-06
-5.96852e-06
-4.39684e-05
-5.62229e-07
-1.759e-06
-2.67372e-06
-2.9555e-06
-3.5098e-06
-3.62349e-06
-3.77099e-06
-4.01858e-06
-3.91735e-06
-4.0865e-06
-4.01155e-06
-3.8614e-06
-3.82727e-06
-4.03056e-06
-4.14664e-06
-4.34712e-06
-4.57301e-06
-4.298e-06
-4.52816e-06
-4.58352e-06
-4.47307e-06
-4.33511e-06
-4.63101e-06
-5.02602e-06
-4.9383e-06
-5.14261e-06
-4.83548e-06
-4.90611e-06
-4.91077e-06
-4.99618e-06
-5.24825e-06
-5.37488e-06
-5.73744e-06
-5.64629e-06
-5.81431e-06
-5.96305e-06
-5.80275e-06
-6.12457e-06
-5.45034e-06
-4.07215e-05
-4.04816e-07
-1.70463e-06
-2.58234e-06
-2.74182e-06
-3.30345e-06
-3.43497e-06
-3.64382e-06
-3.7233e-06
-3.77558e-06
-3.78405e-06
-3.7505e-06
-3.69987e-06
-3.55036e-06
-3.746e-06
-3.87792e-06
-4.0557e-06
-4.29322e-06
-4.08041e-06
-4.19445e-06
-4.29245e-06
-4.32336e-06
-4.10709e-06
-4.41143e-06
-4.73543e-06
-4.69275e-06
-4.83897e-06
-4.66416e-06
-4.63773e-06
-4.74136e-06
-4.79938e-06
-5.06223e-06
-5.06089e-06
-5.45066e-06
-5.58155e-06
-5.78484e-06
-5.7668e-06
-5.62163e-06
-5.91954e-06
-5.16216e-06
-2.71535e-05
-5.25593e-07
-1.6664e-06
-2.39936e-06
-2.55185e-06
-3.12947e-06
-3.24092e-06
-3.40709e-06
-3.45317e-06
-3.50483e-06
-3.4491e-06
-3.66545e-06
-3.67813e-06
-3.38441e-06
-3.52344e-06
-3.7595e-06
-3.90755e-06
-4.13187e-06
-3.90395e-06
-3.91738e-06
-4.05187e-06
-4.24721e-06
-3.90611e-06
-4.03053e-06
-4.3257e-06
-4.4045e-06
-4.7442e-06
-4.52438e-06
-4.38058e-06
-4.63817e-06
-4.67331e-06
-4.85554e-06
-4.87972e-06
-5.14767e-06
-5.50775e-06
-5.69442e-06
-5.50169e-06
-5.3378e-06
-5.71634e-06
-5.27306e-06
-5.74281e-05
-1.00134e-07
-1.38762e-06
-1.9939e-06
-2.13661e-06
-2.73315e-06
-2.95322e-06
-3.01187e-06
-3.06549e-06
-3.09326e-06
-3.08288e-06
-3.34719e-06
-3.60193e-06
-3.15517e-06
-3.21401e-06
-3.4761e-06
-3.54919e-06
-3.75434e-06
-3.59821e-06
-3.57049e-06
-3.66792e-06
-3.71624e-06
-3.68347e-06
-3.63898e-06
-3.76075e-06
-3.93781e-06
-4.38144e-06
-4.38457e-06
-4.04058e-06
-4.37292e-06
-4.41827e-06
-4.52581e-06
-4.60733e-06
-4.91454e-06
-5.3015e-06
-5.4472e-06
-5.25032e-06
-4.89273e-06
-5.46978e-06
-4.9692e-06
-2.32531e-05
-4.37536e-07
-1.26702e-06
-1.77248e-06
-2.01251e-06
-2.73878e-06
-2.84489e-06
-2.85599e-06
-3.02619e-06
-3.00987e-06
-2.89946e-06
-3.44161e-06
-3.63787e-06
-3.23341e-06
-3.14624e-06
-3.44584e-06
-3.37637e-06
-3.44627e-06
-3.21844e-06
-3.3342e-06
-3.28492e-06
-3.48881e-06
-3.60545e-06
-3.58547e-06
-3.5253e-06
-3.62518e-06
-4.3778e-06
-4.35202e-06
-3.82737e-06
-4.10054e-06
-4.21033e-06
-4.29311e-06
-4.52789e-06
-4.82885e-06
-5.20145e-06
-5.23358e-06
-4.96742e-06
-4.97491e-06
-5.14233e-06
-4.98485e-06
-5.37297e-05
5.26368e-08
-9.43581e-07
-1.40558e-06
-1.84416e-06
-2.61614e-06
-2.66211e-06
-2.67687e-06
-2.79181e-06
-2.80373e-06
-2.90202e-06
-3.29124e-06
-3.48065e-06
-3.05039e-06
-3.08268e-06
-3.25674e-06
-3.01025e-06
-3.14302e-06
-2.82627e-06
-3.00241e-06
-2.85867e-06
-3.07938e-06
-3.31522e-06
-3.36834e-06
-3.34832e-06
-3.33922e-06
-3.98239e-06
-4.01175e-06
-3.47193e-06
-3.76313e-06
-3.97344e-06
-4.14198e-06
-4.40435e-06
-4.65819e-06
-4.86246e-06
-4.785e-06
-4.77269e-06
-4.58233e-06
-5.08027e-06
-4.90286e-06
-1.9761e-05
-2.49981e-07
-1.03072e-06
-1.48909e-06
-1.80586e-06
-2.62835e-06
-2.63164e-06
-2.73071e-06
-2.79871e-06
-2.87388e-06
-2.85884e-06
-3.19053e-06
-3.4892e-06
-3.06306e-06
-2.95887e-06
-3.12493e-06
-3.037e-06
-3.23292e-06
-2.6849e-06
-2.86785e-06
-2.75268e-06
-3.03835e-06
-3.18692e-06
-3.13934e-06
-3.34508e-06
-3.2672e-06
-3.64457e-06
-3.84876e-06
-3.37446e-06
-3.68787e-06
-3.82406e-06
-4.25259e-06
-4.26203e-06
-4.52496e-06
-4.46102e-06
-4.72053e-06
-4.61084e-06
-4.685e-06
-4.83319e-06
-5.03214e-06
-3.88817e-05
3.1601e-07
-7.34105e-07
-1.27447e-06
-1.34232e-06
-2.21325e-06
-2.20808e-06
-2.34647e-06
-2.42769e-06
-2.55598e-06
-2.52596e-06
-2.77979e-06
-3.14702e-06
-2.82004e-06
-2.5977e-06
-2.65134e-06
-2.78977e-06
-3.00932e-06
-2.51736e-06
-2.43894e-06
-2.53564e-06
-2.71282e-06
-2.74981e-06
-2.64098e-06
-2.99022e-06
-2.88872e-06
-3.14054e-06
-3.54741e-06
-3.24864e-06
-3.51876e-06
-3.50726e-06
-4.12372e-06
-4.11713e-06
-4.23463e-06
-3.92242e-06
-4.40965e-06
-4.25264e-06
-4.09175e-06
-4.58843e-06
-4.48676e-06
-3.79439e-05
2.48762e-07
-7.96068e-07
-1.59036e-06
-1.21042e-06
-2.01282e-06
-2.20111e-06
-2.19711e-06
-2.35963e-06
-2.50157e-06
-2.45086e-06
-2.47498e-06
-3.1417e-06
-2.91147e-06
-2.56872e-06
-2.60912e-06
-2.7807e-06
-2.96726e-06
-2.53301e-06
-2.4734e-06
-2.71764e-06
-2.73059e-06
-2.73233e-06
-2.54691e-06
-2.97152e-06
-2.94187e-06
-3.06594e-06
-3.40311e-06
-3.30981e-06
-3.73143e-06
-3.36655e-06
-3.89063e-06
-3.99852e-06
-4.15079e-06
-3.63949e-06
-4.05158e-06
-3.98215e-06
-3.96335e-06
-4.6548e-06
-4.4307e-06
-3.65495e-05
2.21869e-07
-8.62645e-07
-1.8506e-06
-1.28083e-06
-1.81829e-06
-2.33034e-06
-2.11562e-06
-2.35202e-06
-2.47793e-06
-2.43636e-06
-2.36349e-06
-2.98225e-06
-2.93674e-06
-2.49665e-06
-2.61544e-06
-2.79122e-06
-2.83603e-06
-2.6252e-06
-2.48247e-06
-2.94019e-06
-2.69493e-06
-2.82593e-06
-2.68219e-06
-2.99232e-06
-3.07997e-06
-3.24148e-06
-3.40081e-06
-3.23232e-06
-3.89516e-06
-3.32264e-06
-3.68249e-06
-3.76714e-06
-4.02928e-06
-3.57819e-06
-3.91731e-06
-3.90684e-06
-3.9968e-06
-4.72136e-06
-4.32658e-06
-4.39732e-05
3.22489e-07
-7.32094e-07
-1.75297e-06
-1.31823e-06
-1.60521e-06
-2.25348e-06
-2.16153e-06
-2.21892e-06
-2.36195e-06
-2.33732e-06
-2.31089e-06
-2.58993e-06
-2.80935e-06
-2.44902e-06
-2.52759e-06
-2.78558e-06
-2.71855e-06
-2.61788e-06
-2.48074e-06
-2.9524e-06
-2.59472e-06
-2.78803e-06
-2.86229e-06
-3.07194e-06
-3.20257e-06
-3.28706e-06
-3.47296e-06
-3.03083e-06
-3.89795e-06
-3.38899e-06
-3.53974e-06
-3.43332e-06
-3.77135e-06
-3.6251e-06
-3.82466e-06
-3.90722e-06
-3.92063e-06
-4.62568e-06
-4.10728e-06
-1.78795e-05
-6.11381e-08
-7.77041e-07
-1.58703e-06
-1.37816e-06
-1.55833e-06
-2.01192e-06
-2.26781e-06
-2.12848e-06
-2.4359e-06
-2.23968e-06
-2.24477e-06
-2.39582e-06
-2.64092e-06
-2.49728e-06
-2.44796e-06
-2.7954e-06
-2.81575e-06
-2.64175e-06
-2.59776e-06
-2.97359e-06
-2.53491e-06
-2.74703e-06
-3.04747e-06
-3.18844e-06
-3.28659e-06
-3.32512e-06
-3.4321e-06
-2.91815e-06
-3.76568e-06
-3.47853e-06
-3.5402e-06
-3.10125e-06
-3.44716e-06
-3.6214e-06
-3.72851e-06
-3.88898e-06
-3.74581e-06
-4.4174e-06
-3.78672e-06
-3.45267e-05
-9.99702e-08
-8.93349e-07
-1.54808e-06
-1.49824e-06
-1.72016e-06
-1.87801e-06
-2.31691e-06
-2.08795e-06
-2.50293e-06
-2.31617e-06
-2.14793e-06
-2.28585e-06
-2.56626e-06
-2.55595e-06
-2.38453e-06
-2.68018e-06
-2.91405e-06
-2.68474e-06
-2.69281e-06
-3.03827e-06
-2.71958e-06
-2.70275e-06
-3.06603e-06
-3.19119e-06
-3.20707e-06
-3.26183e-06
-3.20391e-06
-2.85838e-06
-3.50227e-06
-3.47556e-06
-3.51606e-06
-2.80338e-06
-3.11539e-06
-3.53944e-06
-3.61141e-06
-3.67424e-06
-3.49521e-06
-4.13597e-06
-3.42831e-06
-3.31803e-05
-2.08749e-07
-1.07473e-06
-1.54988e-06
-1.65559e-06
-1.9312e-06
-1.84798e-06
-2.3473e-06
-2.13245e-06
-2.41715e-06
-2.50076e-06
-2.14511e-06
-2.18502e-06
-2.51849e-06
-2.60683e-06
-2.31988e-06
-2.42788e-06
-2.82783e-06
-2.63522e-06
-2.75728e-06
-3.0005e-06
-2.96084e-06
-2.70884e-06
-2.99634e-06
-2.94516e-06
-3.05825e-06
-3.15453e-06
-2.94754e-06
-2.65598e-06
-3.09472e-06
-3.37327e-06
-3.45174e-06
-2.6001e-06
-2.81512e-06
-3.32773e-06
-3.5133e-06
-3.42262e-06
-3.17984e-06
-3.87928e-06
-3.08925e-06
-2.34049e-05
-2.58808e-07
-1.16078e-06
-1.57886e-06
-1.77096e-06
-1.98791e-06
-1.91874e-06
-2.37897e-06
-2.26159e-06
-2.24465e-06
-2.62802e-06
-2.2495e-06
-2.03601e-06
-2.4057e-06
-2.67522e-06
-2.31635e-06
-2.16995e-06
-2.70001e-06
-2.58059e-06
-2.765e-06
-2.92808e-06
-3.05391e-06
-2.73266e-06
-2.88149e-06
-2.61948e-06
-2.90334e-06
-3.0168e-06
-2.78554e-06
-2.51934e-06
-2.67398e-06
-3.1795e-06
-3.40568e-06
-2.60704e-06
-2.64324e-06
-3.10612e-06
-3.44717e-06
-3.26785e-06
-2.81506e-06
-3.72993e-06
-2.89408e-06
-4.8614e-05
6.04537e-08
-1.11741e-06
-1.72435e-06
-1.83962e-06
-1.92615e-06
-1.84579e-06
-2.35241e-06
-2.46262e-06
-2.03505e-06
-2.68207e-06
-2.42275e-06
-2.05813e-06
-2.31798e-06
-2.69768e-06
-2.46266e-06
-2.03824e-06
-2.58913e-06
-2.65708e-06
-2.76711e-06
-2.81674e-06
-3.03114e-06
-2.73987e-06
-2.85e-06
-2.32733e-06
-2.74973e-06
-2.8203e-06
-2.67603e-06
-2.6344e-06
-2.50897e-06
-2.91856e-06
-3.34509e-06
-2.84237e-06
-2.66034e-06
-2.96219e-06
-3.40099e-06
-3.24448e-06
-2.49924e-06
-3.68229e-06
-3.12924e-06
-3.21552e-05
6.58639e-08
-9.48049e-07
-1.98891e-06
-2.01908e-06
-1.90953e-06
-1.89505e-06
-2.07233e-06
-2.5608e-06
-1.9105e-06
-2.59281e-06
-2.50021e-06
-2.32683e-06
-2.2793e-06
-2.64355e-06
-2.62533e-06
-2.05298e-06
-2.43098e-06
-2.72273e-06
-2.74618e-06
-2.66718e-06
-2.82165e-06
-2.70791e-06
-2.90935e-06
-2.18825e-06
-2.54724e-06
-2.73889e-06
-2.55423e-06
-2.84538e-06
-2.57997e-06
-2.73566e-06
-3.22377e-06
-3.02573e-06
-2.88611e-06
-2.88326e-06
-3.36394e-06
-3.32046e-06
-2.32094e-06
-3.69845e-06
-3.57841e-06
-3.16994e-05
6.54672e-08
-7.40419e-07
-2.12125e-06
-2.23169e-06
-1.89205e-06
-1.8859e-06
-1.78542e-06
-2.48773e-06
-1.91896e-06
-2.45205e-06
-2.42512e-06
-2.6775e-06
-2.27734e-06
-2.52893e-06
-2.69025e-06
-2.24288e-06
-2.24519e-06
-2.6655e-06
-2.81508e-06
-2.49882e-06
-2.57674e-06
-2.47906e-06
-2.94115e-06
-2.40412e-06
-2.39028e-06
-2.64426e-06
-2.47691e-06
-3.05974e-06
-2.78767e-06
-2.6578e-06
-2.95187e-06
-3.03359e-06
-3.12532e-06
-3.13202e-06
-3.21517e-06
-3.40125e-06
-2.2426e-06
-3.70352e-06
-3.87893e-06
-3.09634e-05
1.85533e-07
-5.89628e-07
-1.99928e-06
-2.26578e-06
-1.90393e-06
-1.80067e-06
-1.81698e-06
-2.19149e-06
-1.86718e-06
-2.19756e-06
-2.1401e-06
-2.74663e-06
-2.27403e-06
-2.29581e-06
-2.6684e-06
-2.69905e-06
-2.08243e-06
-2.47943e-06
-2.82453e-06
-2.30082e-06
-2.22565e-06
-1.93244e-06
-2.67532e-06
-2.59864e-06
-2.28823e-06
-2.52533e-06
-2.47169e-06
-3.12124e-06
-2.99077e-06
-2.66006e-06
-2.50596e-06
-2.71546e-06
-3.12904e-06
-3.26514e-06
-3.03982e-06
-3.12151e-06
-2.15259e-06
-3.54578e-06
-3.81801e-06
-2.98375e-05
6.09722e-07
-4.53879e-07
-1.67551e-06
-2.12472e-06
-1.91531e-06
-1.73279e-06
-1.82216e-06
-1.90012e-06
-1.70046e-06
-1.79135e-06
-1.70466e-06
-2.45435e-06
-2.24272e-06
-2.01055e-06
-2.53621e-06
-2.81473e-06
-2.00197e-06
-2.39442e-06
-2.62955e-06
-2.1345e-06
-1.98011e-06
-1.44835e-06
-2.17814e-06
-2.38852e-06
-2.06844e-06
-2.58604e-06
-2.53167e-06
-3.12417e-06
-3.39389e-06
-2.66506e-06
-2.23878e-06
-2.50306e-06
-2.6979e-06
-3.16995e-06
-2.73666e-06
-2.60169e-06
-1.96546e-06
-3.04064e-06
-3.68353e-06
-2.87574e-05
7.42496e-07
-3.86333e-07
-1.40456e-06
-2.21164e-06
-1.98953e-06
-1.56397e-06
-1.74677e-06
-1.90843e-06
-1.80178e-06
-1.69887e-06
-1.64964e-06
-2.01871e-06
-1.89189e-06
-1.83331e-06
-2.4045e-06
-2.82823e-06
-2.35024e-06
-2.30894e-06
-2.57655e-06
-2.32826e-06
-2.42076e-06
-1.56578e-06
-2.08636e-06
-2.10691e-06
-1.96199e-06
-2.52141e-06
-2.54995e-06
-3.14171e-06
-3.4343e-06
-2.88037e-06
-2.6534e-06
-2.83026e-06
-2.75003e-06
-3.10016e-06
-2.74006e-06
-2.59199e-06
-1.67897e-06
-2.76304e-06
-3.80251e-06
-2.05191e-05
8.24407e-07
-4.43081e-08
-1.36185e-06
-1.86587e-06
-1.99238e-06
-1.45907e-06
-1.58158e-06
-1.72092e-06
-1.76782e-06
-1.80986e-06
-1.53131e-06
-1.65439e-06
-1.51845e-06
-1.6855e-06
-2.02474e-06
-2.63355e-06
-2.26214e-06
-2.13696e-06
-2.47989e-06
-2.33016e-06
-2.73033e-06
-1.72818e-06
-2.04495e-06
-1.89897e-06
-1.79003e-06
-2.00762e-06
-2.34481e-06
-2.64591e-06
-3.21286e-06
-3.22394e-06
-2.81154e-06
-2.91875e-06
-2.68455e-06
-2.79199e-06
-2.70734e-06
-2.51872e-06
-1.54693e-06
-2.34212e-06
-3.65257e-06
-4.44428e-05
1.17273e-06
2.04008e-07
-1.23683e-06
-1.68417e-06
-1.8552e-06
-1.53766e-06
-1.50744e-06
-1.57754e-06
-1.69681e-06
-1.85825e-06
-1.68735e-06
-1.48385e-06
-1.19582e-06
-1.54216e-06
-1.6979e-06
-2.2025e-06
-2.14443e-06
-2.10224e-06
-2.30715e-06
-2.32036e-06
-2.41941e-06
-1.95889e-06
-2.15509e-06
-1.71593e-06
-1.61977e-06
-1.71547e-06
-2.14742e-06
-2.19004e-06
-2.9741e-06
-2.91048e-06
-2.92539e-06
-3.22088e-06
-2.60214e-06
-2.78442e-06
-2.51552e-06
-2.82626e-06
-1.62379e-06
-1.944e-06
-3.03007e-06
-2.79159e-05
1.12616e-06
6.33453e-07
-9.55297e-07
-1.51688e-06
-1.75006e-06
-1.49582e-06
-1.58129e-06
-1.46128e-06
-1.42032e-06
-1.89187e-06
-1.60936e-06
-1.36281e-06
-6.36189e-07
-1.01501e-06
-1.1581e-06
-1.45102e-06
-1.598e-06
-1.7964e-06
-1.80633e-06
-2.08764e-06
-2.16343e-06
-2.02381e-06
-2.04499e-06
-1.7729e-06
-1.28486e-06
-1.40346e-06
-1.64693e-06
-1.81058e-06
-2.29172e-06
-2.5537e-06
-2.75139e-06
-3.04705e-06
-2.21617e-06
-2.63326e-06
-2.35231e-06
-2.58244e-06
-1.39104e-06
-1.19293e-06
-2.66641e-06
-2.85229e-05
6.43678e-07
4.16316e-07
-1.19152e-06
-1.72877e-06
-1.58254e-06
-1.43861e-06
-1.87882e-06
-2.00865e-06
-1.987e-06
-2.20247e-06
-1.96262e-06
-1.84415e-06
-1.38702e-06
-1.52126e-06
-1.50578e-06
-1.66075e-06
-1.68137e-06
-1.48458e-06
-1.76773e-06
-2.11357e-06
-1.98781e-06
-1.7071e-06
-2.3878e-06
-2.03768e-06
-1.25568e-06
-1.31273e-06
-1.85463e-06
-1.56599e-06
-1.97296e-06
-2.57211e-06
-2.51007e-06
-3.03016e-06
-2.51007e-06
-2.70317e-06
-1.99075e-06
-2.96501e-06
-2.35684e-06
-2.26576e-06
-2.88278e-06
-1.95993e-05
7.29698e-07
3.17973e-07
-1.22951e-06
-1.57714e-06
-1.35809e-06
-1.28861e-06
-1.74551e-06
-1.97909e-06
-2.05674e-06
-2.19456e-06
-2.0695e-06
-1.95278e-06
-1.49873e-06
-1.75447e-06
-1.55349e-06
-1.75041e-06
-1.63822e-06
-1.37093e-06
-1.6547e-06
-2.01244e-06
-1.48363e-06
-1.63928e-06
-2.28372e-06
-2.21379e-06
-1.39073e-06
-1.15064e-06
-1.84581e-06
-1.54188e-06
-1.83983e-06
-2.31284e-06
-2.31465e-06
-3.03682e-06
-2.61899e-06
-2.49913e-06
-2.03174e-06
-2.8476e-06
-2.96894e-06
-2.45993e-06
-2.56462e-06
-4.29764e-05
1.26501e-06
4.83566e-07
-1.14356e-06
-1.45315e-06
-1.1689e-06
-8.49026e-07
-1.41989e-06
-1.77769e-06
-2.01194e-06
-2.10998e-06
-1.81885e-06
-1.89111e-06
-1.41076e-06
-1.69969e-06
-1.71071e-06
-1.70857e-06
-1.48775e-06
-1.26233e-06
-1.24588e-06
-1.75312e-06
-1.59419e-06
-1.2497e-06
-2.14687e-06
-2.38858e-06
-1.24968e-06
-1.06964e-06
-1.58919e-06
-1.68958e-06
-1.3705e-06
-1.82069e-06
-1.88625e-06
-2.32387e-06
-2.57763e-06
-2.55734e-06
-1.7482e-06
-2.08506e-06
-2.50269e-06
-2.47877e-06
-2.82527e-06
-2.62129e-05
1.57069e-06
9.79614e-07
-5.92792e-07
-9.0254e-07
-7.63923e-07
-6.50159e-07
-1.22375e-06
-1.17189e-06
-1.37309e-06
-1.34705e-06
-1.31809e-06
-1.37812e-06
-1.14807e-06
-1.49749e-06
-1.87823e-06
-1.77609e-06
-1.12439e-06
-8.09888e-07
-1.23039e-06
-1.41693e-06
-9.77745e-07
-6.03237e-07
-2.00232e-06
-1.95323e-06
-1.47499e-06
-1.05505e-06
-1.3184e-06
-1.27274e-06
-1.08382e-06
-1.21602e-06
-1.1719e-06
-1.72729e-06
-2.39081e-06
-2.04372e-06
-1.02886e-06
-1.1774e-06
-2.14467e-06
-2.67102e-06
-2.7181e-06
-2.00837e-05
1.51104e-06
9.27168e-07
-6.0538e-07
-8.474e-07
-9.58186e-07
-7.80259e-07
-1.21427e-06
-1.11647e-06
-1.34664e-06
-1.66077e-06
-1.51874e-06
-1.6551e-06
-1.2243e-06
-1.43313e-06
-1.6406e-06
-1.7077e-06
-1.29581e-06
-1.82549e-06
-1.63765e-06
-1.97167e-06
-1.13991e-06
-1.04443e-06
-1.7034e-06
-2.383e-06
-2.05149e-06
-1.37919e-06
-1.66135e-06
-1.98464e-06
-1.84478e-06
-1.63154e-06
-1.59238e-06
-1.66508e-06
-2.38381e-06
-2.50132e-06
-1.83624e-06
-1.51458e-06
-2.2518e-06
-2.256e-06
-2.39519e-06
-4.0673e-05
1.96361e-06
1.16746e-06
-3.69906e-07
-6.55471e-07
-6.70485e-07
-4.24664e-07
-1.04297e-06
-7.26216e-07
-1.07018e-06
-1.2945e-06
-1.32849e-06
-1.54594e-06
-9.8938e-07
-1.2349e-06
-1.52131e-06
-1.65595e-06
-1.0703e-06
-1.4069e-06
-1.24831e-06
-1.84994e-06
-1.30013e-06
-5.32829e-07
-1.68595e-06
-1.72269e-06
-2.03387e-06
-1.50489e-06
-1.45891e-06
-1.60412e-06
-1.81862e-06
-1.60796e-06
-1.3115e-06
-1.33998e-06
-2.17124e-06
-2.34185e-06
-1.68378e-06
-7.45973e-07
-1.6504e-06
-1.76343e-06
-1.8502e-06
-2.52009e-05
2.68792e-06
1.68564e-06
2.01141e-08
-9.88495e-08
-1.48398e-08
3.14039e-07
-7.79624e-08
1.17572e-07
-3.49022e-07
-1.17541e-06
-1.55826e-06
-1.42231e-06
-8.72047e-07
-8.38977e-07
-1.28375e-06
-9.77475e-07
-6.51394e-07
-1.36125e-06
-1.49141e-06
-1.79646e-06
-1.38523e-06
-9.9476e-07
-1.10736e-06
-1.17735e-06
-1.99956e-06
-1.21297e-06
-1.00647e-06
-1.14961e-06
-1.90336e-06
-1.82009e-06
-1.19051e-06
-1.22895e-06
-1.56541e-06
-2.04632e-06
-1.75202e-06
-1.63293e-06
-1.45661e-06
-1.18644e-06
-1.18806e-06
-2.19329e-05
2.26202e-06
9.71382e-07
-7.2309e-07
-1.1247e-06
-8.20234e-07
-5.14447e-07
-1.0199e-06
-8.83135e-07
-1.10521e-06
-1.3286e-06
-1.27815e-06
-1.7082e-06
-1.23565e-06
-1.27088e-06
-1.4859e-06
-1.74332e-06
-1.47884e-06
-2.16783e-06
-1.77079e-06
-2.00626e-06
-2.29183e-06
-1.28026e-06
-1.56059e-06
-9.9229e-07
-1.65093e-06
-1.74725e-06
-1.50005e-06
-1.50789e-06
-2.35539e-06
-2.17441e-06
-1.71764e-06
-1.61906e-06
-2.14799e-06
-2.73294e-06
-2.15645e-06
-1.92118e-06
-1.66288e-06
-2.00994e-06
-9.87475e-07
-3.89767e-05
2.74519e-06
1.25577e-06
-5.23598e-07
-1.0118e-06
-6.74051e-07
-4.26114e-07
-7.29036e-07
-4.67341e-07
-8.41315e-07
-1.18344e-06
-1.2376e-06
-1.40955e-06
-1.12227e-06
-1.07093e-06
-1.70112e-06
-1.42313e-06
-1.49117e-06
-2.14254e-06
-1.7956e-06
-2.00646e-06
-2.15585e-06
-1.00035e-06
-1.44865e-06
-2.71971e-07
-1.19048e-06
-1.32834e-06
-1.29367e-06
-1.20001e-06
-2.17982e-06
-2.31723e-06
-1.37423e-06
-1.50844e-06
-1.83832e-06
-2.42439e-06
-1.95862e-06
-1.89738e-06
-1.76784e-06
-1.78331e-06
-1.10114e-06
-2.26907e-05
2.55287e-06
9.73386e-07
-7.59577e-07
-1.54275e-06
-1.11903e-06
-9.50488e-07
-1.38997e-06
-1.36631e-06
-1.2293e-06
-9.84653e-07
-8.43598e-07
-1.18999e-06
-1.33795e-06
-1.2788e-06
-2.09464e-06
-1.91955e-06
-1.46323e-06
-2.30366e-06
-2.01087e-06
-1.59198e-06
-1.79737e-06
-9.45298e-07
-1.08775e-06
-5.20582e-07
-8.4178e-08
-1.00442e-06
-1.13048e-06
-1.29102e-06
-1.97281e-06
-2.11399e-06
-1.23301e-06
-1.33963e-06
-1.42928e-06
-2.19217e-06
-1.8928e-06
-1.60821e-06
-1.40432e-06
-2.16775e-06
-1.56626e-06
-3.80101e-05
2.44978e-06
1.22318e-06
-2.88681e-07
-1.35976e-06
-1.37538e-06
-8.69467e-07
-1.36248e-06
-1.26406e-06
-1.15903e-06
-1.31609e-06
-1.22105e-06
-1.27709e-06
-1.41514e-06
-1.31391e-06
-1.38796e-06
-1.59925e-06
-1.23699e-06
-1.6576e-06
-1.66943e-06
-1.44886e-06
-2.63449e-06
-1.18951e-06
-1.55882e-06
-7.51954e-07
-7.60779e-07
-1.05982e-06
-1.4983e-06
-1.0298e-06
-2.19818e-06
-1.94501e-06
-1.51761e-06
-9.7884e-07
-1.72786e-06
-2.15854e-06
-1.98168e-06
-1.6401e-06
-1.47372e-06
-2.08956e-06
-1.62645e-06
-2.77958e-05
2.52103e-06
1.43081e-06
5.99119e-08
-9.87787e-07
-1.63156e-06
-1.20736e-06
-1.55101e-06
-1.72862e-06
-9.70742e-07
-1.187e-06
-1.13502e-06
-1.16706e-06
-1.30165e-06
-1.39158e-06
-1.59972e-06
-1.39874e-06
-7.13262e-07
-1.06817e-06
-7.75853e-07
-4.44217e-07
-1.1428e-06