/*--------------------------------*- C++ -*----------------------------------*\
| =========                 |                                                 |
| \\      /  F ield         | OpenFOAM: The Open Source CFD Toolbox           |
|  \\    /   O peration     | Version:  2506                                  |
|   \\  /    A nd           | Website:  www.openfoam.com                      |
|    \\/     M anipulation  |                                                 |
\*---------------------------------------------------------------------------*/
FoamFile
{
    version     2.0;
    format      ascii;
    arch        "LSB;label=32;scalar=64";
    class       volScalarField;
    location    "6000";
    object      yPlus;
}
// * * * * * * * * * * * * * * * * * * * * * * * * * * * * * * * * * * * * * //

dimensions      [0 0 0 0 0 0 0];

internalField   uniform 0;

boundaryField
{
    inlet
    {
        type            calculated;
        value           uniform 0;
    }
    outlet
    {
        type            calculated;
        value           uniform 0;
    }
    bottom
    {
        type            calculated;
        value           nonuniform List<scalar> 
412
(
0.677365
0.680264
0.677851
0.660115
0.656228
0.652595
0.649078
0.645648
0.64228
0.638878
0.635479
0.632094
0.628693
0.6254
0.621767
0.617799
0.61345
0.608914
0.604474
0.600238
0.595613
0.590245
0.584966
0.578919
0.572441
0.565642
0.558262
0.552143
0.542674
0.534664
0.524483
0.51513
0.503141
0.492099
0.477976
0.464258
0.448163
0.430074
0.411141
0.383127
0.315463
0.13076
0.138342
0.14688
0.15394
0.435297
0.687584
0.924677
1.1594
1.30215
1.41787
1.44034
1.38113
1.9086
1.64218
2.1835
1.69692
2.35975
1.92389
2.34169
2.15198
2.13023
2.34187
1.8057
2.45718
2.15472
2.07722
2.33681
1.97515
2.24554
2.22697
1.86532
2.21919
2.12818
1.85371
2.0067
2.02021
1.86355
1.62116
1.87916
1.79237
1.63474
1.57333
1.64006
1.56742
1.46197
1.25694
1.37981
1.3182
1.24837
1.15994
0.985212
1.02267
0.962932
0.896887
0.820717
0.737014
0.625483
0.507484
0.439344
0.34967
0.273646
0.271668
0.269646
0.267584
0.265477
0.263329
0.261139
0.258907
0.256632
0.254314
0.251954
0.24955
0.247103
0.244609
0.242067
0.239495
0.236878
0.234214
0.231772
0.228952
0.226207
0.223539
0.220443
0.21733
0.214315
0.211241
0.207951
0.204777
0.2015
0.198215
0.195135
0.192129
0.188897
0.185972
0.183268
0.180786
0.17843
0.17635
0.174603
0.173179
0.172277
0.171924
0.171898
0.172386
0.173364
0.174827
0.176622
0.178903
0.198474
0.249953
0.320599
0.351481
0.438956
0.463345
0.537864
0.567953
0.588717
0.663886
0.680626
0.711912
0.764697
0.775089
0.833375
0.850141
0.855861
0.903769
0.920021
0.919395
0.939552
0.973854
0.96914
0.942615
1.00473
1.00319
0.9918
0.969777
1.0178
1.00729
0.990278
0.950502
0.994927
0.989801
0.968059
0.928531
0.903999
0.933331
0.923927
0.897667
0.866392
0.814855
0.794178
0.802755
0.794363
0.766216
0.731545
0.694363
0.647458
0.603455
0.574836
0.555661
0.539101
0.517444
0.485629
0.444575
0.403207
0.362968
0.324288
0.275219
0.21501
0.143738
0.0849586
0.168164
0.20097
0.215959
0.223281
0.234967
0.24313
0.240397
0.231895
0.221752
0.22364
0.243305
0.265633
0.281467
0.29185
0.306585
0.324023
0.337983
0.350676
0.363617
0.37992
0.399432
0.426505
0.456413
0.483221
0.507427
0.529799
0.555143
0.584913
0.621813
0.649796
0.665003
0.677219
0.695413
0.719414
0.747254
0.750618
0.715214
0.687319
0.655886
0.596686
0.596291
0.61392
0.629314
0.647227
0.653178
0.657958
0.657085
0.653624
0.64506
0.632561
0.618746
0.606732
0.586527
0.561218
0.534663
0.50847
0.477663
0.438131
0.400735
0.361805
0.315788
0.266313
0.212274
0.135981
0.115912
0.117518
0.119163
0.120746
0.122423
0.124199
0.125461
0.126309
0.126899
0.127706
0.128519
0.129268
0.130112
0.210482
0.288288
0.333662
0.368583
0.375641
0.374496
0.374715
0.384579
0.383501
0.381189
0.380792
0.387995
0.391184
0.390971
0.390716
0.390568
0.39331
0.398049
0.394172
0.391441
0.388458
0.385734
0.381703
0.375954
0.369619
0.363147
0.355682
0.349346
0.34537
0.340647
0.333743
0.324553
0.316355
0.308234
0.297416
0.287422
0.275773
0.259352
0.237859
0.219643
0.20303
0.186826
0.16309
0.119967
0.0459733
0.0846622
0.12247
0.149022
0.173708
0.194758
0.211135
0.228745
0.248645
0.262707
0.279148
0.296231
0.316869
0.32868
0.341857
0.356256
0.370353
0.383864
0.394892
0.407078
0.419729
0.432406
0.441641
0.451459
0.463131
0.471517
0.480395
0.490917
0.499675
0.506987
0.515547
0.523686
0.531115
0.537338
0.543655
0.549243
0.554874
0.5612
0.566175
0.570847
0.576479
0.581159
0.585018
0.589532
0.593794
0.598956
0.602635
0.606197
0.610149
0.612796
0.615971
0.619006
0.621645
0.624256
0.626829
0.629115
0.631054
0.632829
0.634832
0.636686
0.638684
0.639933
0.641084
0.642892
0.644419
0.645765
0.646931
0.647762
0.648881
0.64966
0.650656
0.651617
0.652937
0.654495
0.6561
0.658586
0.663096
0.670923
0.690486
)
;
    }
    top
    {
        type            calculated;
        value           uniform 0;
    }
    frontAndBack
    {
        type            empty;
    }
}


// ************************************************************************* //
