# y+ ()       
# Time        	patch         	min           	max           	average       
6000          	bottom	4.690235e-02	7.853935e-01	5.004485e-01
