/*--------------------------------*- C++ -*----------------------------------*\
| =========                 |                                                 |
| \\      /  F ield         | OpenFOAM: The Open Source CFD Toolbox           |
|  \\    /   O peration     | Version:  2506                                  |
|   \\  /    A nd           | Website:  www.openfoam.com                      |
|    \\/     M anipulation  |                                                 |
\*---------------------------------------------------------------------------*/
FoamFile
{
    version     2.0;
    format      ascii;
    arch        "LSB;label=32;scalar=64";
    class       volTensorField;
    location    "0";
    object      grad(U);
}
// * * * * * * * * * * * * * * * * * * * * * * * * * * * * * * * * * * * * * //

dimensions      [0 0 -1 0 0 0 0];

internalField   nonuniform List<tensor> 
72100
(
(27.2306 -0.00769838 0 20299.3 -3.24798 0 0 0 0)
(0.110067 0.0097071 0 19648.6 -0.933795 0 0 0 0)
(-4.81493 0.00558664 0 19525.1 1.91113 0 0 0 0)
(-5.15683 0.000243732 0 19106.7 2.2789 0 0 0 0)
(-1.78595 -0.000238015 0 18890.5 2.22821 0 0 0 0)
(-1.70423 -0.000284841 0 18691.3 2.13904 0 0 0 0)
(-1.66209 -0.000169057 0 18499 2.0791 0 0 0 0)
(-1.63263 -6.2674e-05 0 18312.4 2.04931 0 0 0 0)
(-1.63213 -4.21307e-05 0 18130.4 2.04634 0 0 0 0)
(-1.64595 3.96076e-05 0 17948 2.03171 0 0 0 0)
(-1.64824 0.000105951 0 17765.1 2.06475 0 0 0 0)
(-1.65493 2.09003e-05 0 17584 2.08432 0 0 0 0)
(-1.63859 -4.79936e-05 0 17404.4 2.07185 0 0 0 0)
(-1.7019 0.000487354 0 17230.8 2.06445 0 0 0 0)
(-1.87384 0.00100602 0 17040.4 2.34385 0 0 0 0)
(-2.05613 0.000858169 0 16831.1 2.60658 0 0 0 0)
(-2.20122 0.000235138 0 16605.2 2.78117 0 0 0 0)
(-2.22777 0.000634917 0 16375.3 2.71514 0 0 0 0)
(-2.15749 0.000859394 0 16148.5 2.72821 0 0 0 0)
(-2.20734 5.84206e-05 0 15929.2 2.87365 0 0 0 0)
(-2.49262 0.00184597 0 15697.2 3.10401 0 0 0 0)
(-2.65709 0.0013056 0 15432 3.45859 0 0 0 0)
(-2.82548 0.000336531 0 15165 3.61299 0 0 0 0)
(-3.12132 0.00219079 0 14870.4 3.90238 0 0 0 0)
(-3.30201 0.000450328 0 14551.5 4.329 0 0 0 0)
(-3.51571 0.0014508 0 14223.9 4.40958 0 0 0 0)
(-3.33735 0.000764676 0 13877.1 4.70671 0 0 0 0)
(-3.83595 0.00140814 0 13548.3 4.80326 0 0 0 0)
(-4.27927 0.00139308 0 13150.2 5.26268 0 0 0 0)
(-4.41733 0.00215967 0 12774.1 5.50088 0 0 0 0)
(-4.70561 0.00158622 0 12327.4 6.13785 0 0 0 0)
(-5.0827 0.00285798 0 11899.3 6.27034 0 0 0 0)
(-5.42121 0.00238504 0 11398.1 7.10501 0 0 0 0)
(-5.82743 0.00190317 0 10906.7 7.34916 0 0 0 0)
(-6.33833 0.0033791 0 10343 8.09405 0 0 0 0)
(-6.63564 0.00217047 0 9785.08 8.50437 0 0 0 0)
(-7.41387 0.00611427 0 9161.01 9.4026 0 0 0 0)
(-7.78452 0.00348558 0 8494.34 10.1702 0 0 0 0)
(-9.43489 0.049985 0 7796.06 11.3014 0 0 0 0)
(-17.2039 0.278217 0 6894.38 18.4944 0 0 0 0)
(74.1143 -0.060099 0 17825.9 -5.30783 0 0 0 0)
(-12.6437 0.0738516 0 18965.1 -1.82995 0 0 0 0)
(-3.96428 0.046728 0 18867.5 4.17081 0 0 0 0)
(-5.1902 0.00496175 0 18890 5.13487 0 0 0 0)
(-5.10016 -0.00209284 0 18699.2 5.03644 0 0 0 0)
(-4.84528 -0.00221697 0 18521.6 4.8262 0 0 0 0)
(-4.73426 -0.00134942 0 18349.6 4.70306 0 0 0 0)
(-4.6493 -0.000495539 0 18183.9 4.62043 0 0 0 0)
(-4.63458 -0.000262322 0 18023 4.63185 0 0 0 0)
(-4.69284 0.000284853 0 17860.8 4.60466 0 0 0 0)
(-4.72697 0.000817741 0 17698.6 4.6751 0 0 0 0)
(-4.72016 0.000102219 0 17534.2 4.71709 0 0 0 0)
(-4.66122 -0.00030712 0 17372.9 4.68951 0 0 0 0)
(-4.85192 0.00445261 0 17216.2 4.69219 0 0 0 0)
(-5.38886 0.00888069 0 17046.4 5.33108 0 0 0 0)
(-5.92505 0.0071831 0 16854.4 5.9485 0 0 0 0)
(-6.23168 0.00176024 0 16649.4 6.31374 0 0 0 0)
(-6.29803 -0.00163967 0 16447.6 6.17301 0 0 0 0)
(-6.2474 0.0021366 0 16245.4 6.04615 0 0 0 0)
(-6.37646 0.00714119 0 16036.2 6.38322 0 0 0 0)
(-7.05155 0.00941781 0 15826.4 7.03236 0 0 0 0)
(-7.65145 0.00856603 0 15591.6 7.57357 0 0 0 0)
(-8.15469 0.00839843 0 15340.1 8.1573 0 0 0 0)
(-8.98119 0.0119824 0 15070.1 8.88112 0 0 0 0)
(-9.56988 0.00966979 0 14785 9.5413 0 0 0 0)
(-10.0348 0.00617028 0 14483.4 10.0199 0 0 0 0)
(-10.3637 0.00723122 0 14176.8 10.2879 0 0 0 0)
(-11.0422 0.0100404 0 13839.7 11.0288 0 0 0 0)
(-11.6997 0.0130498 0 13507.5 11.5904 0 0 0 0)
(-12.7372 0.0161805 0 13149.3 12.6838 0 0 0 0)
(-13.6896 0.0146126 0 12751 13.5913 0 0 0 0)
(-14.6471 0.0177988 0 12340.8 14.4834 0 0 0 0)
(-15.8393 0.020754 0 11899.1 15.6021 0 0 0 0)
(-16.9854 0.0196165 0 11423.6 16.9279 0 0 0 0)
(-18.1271 0.0218656 0 10925 17.8353 0 0 0 0)
(-19.3933 0.0268191 0 10395.7 19.477 0 0 0 0)
(-21.265 0.0309679 0 9817.69 21.1599 0 0 0 0)
(-22.8237 0.0393153 0 9209.92 23.0321 0 0 0 0)
(-26.7845 0.138955 0 8545.9 25.9673 0 0 0 0)
(-37.3082 0.886346 0 7764.57 32.6644 0 0 0 0)
(80.4313 -0.125985 0 17337.1 -7.13848 0 0 0 0)
(17.6843 0.16609 0 18449.2 -2.30246 0 0 0 0)
(-6.08865 0.121186 0 18375.5 6.35046 0 0 0 0)
(-8.0262 0.0147204 0 18239.7 7.96591 0 0 0 0)
(-8.00564 -0.00548195 0 18085.3 7.89291 0 0 0 0)
(-7.66176 -0.00598644 0 17936.7 7.56867 0 0 0 0)
(-7.46787 -0.00372234 0 17792.5 7.38448 0 0 0 0)
(-7.29997 -0.00129664 0 17653.3 7.22529 0 0 0 0)
(-7.29289 -0.000319548 0 17517.9 7.27833 0 0 0 0)
(-7.38022 0.000816023 0 17379.1 7.27072 0 0 0 0)
(-7.47321 0.00211813 0 17241.6 7.38567 0 0 0 0)
(-7.51819 0.000276031 0 17099.3 7.4593 0 0 0 0)
(-7.41733 -0.000497255 0 16958 7.43177 0 0 0 0)
(-7.68962 0.012362 0 16816.9 7.47065 0 0 0 0)
(-8.57043 0.0243629 0 16669 8.45997 0 0 0 0)
(-9.47158 0.0192722 0 16502.4 9.43243 0 0 0 0)
(-9.86785 0.00443995 0 16321.6 9.9773 0 0 0 0)
(-9.9119 -0.00446357 0 16146.8 9.79287 0 0 0 0)
(-10.0553 0.00495694 0 15969.3 9.73997 0 0 0 0)
(-10.3266 0.0192655 0 15779.5 10.2073 0 0 0 0)
(-11.1865 0.0252247 0 15584.7 11.198 0 0 0 0)
(-12.2539 0.0236148 0 15363.2 12.1958 0 0 0 0)
(-13.2133 0.0265256 0 15159 12.9956 0 0 0 0)
(-14.2757 0.0301159 0 14909.9 14.2132 0 0 0 0)
(-15.2015 0.0235993 0 14661 15.2479 0 0 0 0)
(-15.9623 0.0167921 0 14395.6 15.9158 0 0 0 0)
(-16.6325 0.0217583 0 14115.7 16.6181 0 0 0 0)
(-17.7882 0.0286811 0 13834.8 17.6778 0 0 0 0)
(-18.808 0.0364246 0 13515.2 18.7714 0 0 0 0)
(-20.4817 0.0448238 0 13205.6 20.3699 0 0 0 0)
(-22.0267 0.040318 0 12837.4 22.0326 0 0 0 0)
(-23.5034 0.0465516 0 12482.6 23.2552 0 0 0 0)
(-25.437 0.0559816 0 12077.7 25.3005 0 0 0 0)
(-27.2804 0.0512338 0 11667.2 27.1407 0 0 0 0)
(-29.1855 0.0603797 0 11214.2 28.8365 0 0 0 0)
(-31.4767 0.0770927 0 10743.3 31.2431 0 0 0 0)
(-34.2574 0.0870286 0 10231.5 33.8733 0 0 0 0)
(-36.84 0.113944 0 9675.27 37.211 0 0 0 0)
(-42.7623 0.273085 0 9083.02 41.8397 0 0 0 0)
(-55.1528 1.49469 0 8379.63 51.2165 0 0 0 0)
(119.676 -0.22146 0 18653.9 -8.77664 0 0 0 0)
(4.22201 0.302127 0 17116.6 -2.41352 0 0 0 0)
(-7.52393 0.221222 0 17083.6 7.83597 0 0 0 0)
(-10.1668 0.0314027 0 16999.1 10.1535 0 0 0 0)
(-10.3439 -0.00899834 0 16886.8 10.2158 0 0 0 0)
(-9.95929 -0.0111145 0 16773.2 9.86255 0 0 0 0)
(-9.73039 -0.00742441 0 16661.9 9.62843 0 0 0 0)
(-9.53414 -0.00237248 0 16553.4 9.39348 0 0 0 0)
(-9.55822 0.000561096 0 16446.8 9.51462 0 0 0 0)
(-9.69957 0.00225369 0 16333 9.59382 0 0 0 0)
(-9.84546 0.0042774 0 16217.6 9.77825 0 0 0 0)
(-9.95628 0.000951537 0 16099.1 9.89271 0 0 0 0)
(-9.92325 -8.21821e-05 0 15980.5 9.89723 0 0 0 0)
(-10.2872 0.0239273 0 15856.1 10.0117 0 0 0 0)
(-11.3568 0.0462116 0 15725.6 11.2879 0 0 0 0)
(-12.5782 0.036285 0 15585.6 12.551 0 0 0 0)
(-13.1033 0.00868628 0 15434.2 13.1985 0 0 0 0)
(-13.1687 -0.00624689 0 15284.5 13.0544 0 0 0 0)
(-13.4776 0.0103787 0 15125.5 13.1641 0 0 0 0)
(-14.0196 0.0362322 0 14967.9 13.7835 0 0 0 0)
(-15.4066 0.0494131 0 14779.9 15.0614 0 0 0 0)
(-16.261 0.0450197 0 14589.4 16.2899 0 0 0 0)
(-17.4099 0.0497186 0 14406.4 17.4547 0 0 0 0)
(-19.2434 0.0585324 0 14209.7 18.8906 0 0 0 0)
(-20.2646 0.0451569 0 13969.8 20.4253 0 0 0 0)
(-21.4813 0.035042 0 13754.2 21.2099 0 0 0 0)
(-22.2402 0.044713 0 13505.5 22.3001 0 0 0 0)
(-23.8801 0.0562066 0 13273 23.7281 0 0 0 0)
(-25.2697 0.0713485 0 12994.5 25.1946 0 0 0 0)
(-27.4988 0.0873953 0 12724 27.3793 0 0 0 0)
(-29.5704 0.0781433 0 12406.3 29.532 0 0 0 0)
(-31.494 0.0905655 0 12096 31.2481 0 0 0 0)
(-34.0841 0.107928 0 11742.3 33.9307 0 0 0 0)
(-36.4834 0.0997024 0 11391.1 36.4596 0 0 0 0)
(-39.1811 0.115687 0 10985.2 38.9755 0 0 0 0)
(-41.9894 0.142934 0 10594.9 41.8603 0 0 0 0)
(-46.0544 0.169962 0 10146.3 45.5527 0 0 0 0)
(-49.7281 0.226621 0 9678.21 49.618 0 0 0 0)
(-57.4216 0.471506 0 9155.89 56.1348 0 0 0 0)
(-71.153 2.10323 0 8539.21 67.9118 0 0 0 0)
(149.034 -0.322496 0 14878.6 -7.62635 0 0 0 0)
(-9.34887 0.453834 0 15292.1 -2.54738 0 0 0 0)
(-8.13264 0.340075 0 15298.5 8.42843 0 0 0 0)
(-11.4848 0.0565528 0 15264.7 11.5212 0 0 0 0)
(-12.0107 -0.0106626 0 15197.9 11.9006 0 0 0 0)
(-11.6878 -0.0165139 0 15120.7 11.6132 0 0 0 0)
(-11.4404 -0.0122261 0 15041.3 11.362 0 0 0 0)
(-11.2209 -0.00334442 0 14963.1 11.0903 0 0 0 0)
(-11.3497 0.0033944 0 14884.5 11.3011 0 0 0 0)
(-11.6405 0.0057552 0 14797.2 11.5217 0 0 0 0)
(-11.8603 0.00773989 0 14705.9 11.7929 0 0 0 0)
(-12.0042 0.00253224 0 14609.2 11.9688 0 0 0 0)
(-12.0588 0.00180624 0 14512.7 12.048 0 0 0 0)
(-12.6057 0.0393482 0 14408.2 12.3076 0 0 0 0)
(-13.8351 0.0738834 0 14297.4 13.733 0 0 0 0)
(-15.1923 0.0568079 0 14179.5 15.254 0 0 0 0)
(-15.8328 0.01437 0 14057.5 15.9424 0 0 0 0)
(-16.0884 -0.00509193 0 13933.7 15.9485 0 0 0 0)
(-16.445 0.0197818 0 13793.7 16.2873 0 0 0 0)
(-17.3696 0.0580641 0 13654.9 17.1415 0 0 0 0)
(-18.9648 0.0768207 0 13500.8 18.5031 0 0 0 0)
(-20.0048 0.0733833 0 13349.9 19.836 0 0 0 0)
(-21.1632 0.0811434 0 13168.8 21.4312 0 0 0 0)
(-23.5022 0.0930107 0 12997.2 23.1542 0 0 0 0)
(-24.9152 0.0730977 0 12826 24.7644 0 0 0 0)
(-25.9505 0.0572451 0 12633.5 25.7893 0 0 0 0)
(-27.0787 0.0766308 0 12451.3 27.0269 0 0 0 0)
(-28.9876 0.0922754 0 12232.8 29.0301 0 0 0 0)
(-30.9472 0.11745 0 12017.4 30.757 0 0 0 0)
(-33.6132 0.141853 0 11768.7 33.5654 0 0 0 0)
(-36.1703 0.127629 0 11520.4 35.9969 0 0 0 0)
(-38.6032 0.146871 0 11242.3 38.2843 0 0 0 0)
(-41.6052 0.175812 0 10966.9 41.1832 0 0 0 0)
(-44.8159 0.16837 0 10657.4 44.575 0 0 0 0)
(-47.7844 0.186896 0 10341.8 47.4531 0 0 0 0)
(-51.2631 0.23268 0 9983.72 51.323 0 0 0 0)
(-56.0659 0.272049 0 9614.69 55.7264 0 0 0 0)
(-60.6215 0.368897 0 9222.7 60.768 0 0 0 0)
(-70.3754 0.71795 0 8790.01 68.5659 0 0 0 0)
(-84.8882 2.65761 0 8307.92 81.3963 0 0 0 0)
(140.86 -0.406207 0 12849.4 -6.89264 0 0 0 0)
(12.0754 0.587046 0 13260 -2.68392 0 0 0 0)
(-8.00908 0.472497 0 13290.7 8.25848 0 0 0 0)
(-11.9755 0.0940378 0 13295.7 12.0819 0 0 0 0)
(-12.959 -0.00731574 0 13270.5 12.8838 0 0 0 0)
(-12.8334 -0.0210068 0 13228.6 12.7682 0 0 0 0)
(-12.6491 -0.017132 0 13179.3 12.5734 0 0 0 0)
(-12.4658 -0.00346172 0 13126.8 12.3368 0 0 0 0)
(-12.6911 0.00874753 0 13069 12.639 0 0 0 0)
(-13.0999 0.0116721 0 13005.5 13.0194 0 0 0 0)
(-13.4603 0.0128981 0 12938.8 13.3809 0 0 0 0)
(-13.7058 0.00592055 0 12864.5 13.6436 0 0 0 0)
(-13.8596 0.00661503 0 12788.8 13.8178 0 0 0 0)
(-14.5443 0.05741 0 12701.9 14.2981 0 0 0 0)
(-15.92 0.105105 0 12611.8 15.7684 0 0 0 0)
(-17.4075 0.0807794 0 12517.5 17.429 0 0 0 0)
(-18.0963 0.0227823 0 12420.9 18.1952 0 0 0 0)
(-18.5791 0.00092447 0 12318.6 18.4543 0 0 0 0)
(-19.2503 0.0352143 0 12201.6 19.0363 0 0 0 0)
(-20.1366 0.082634 0 12075.6 20.1115 0 0 0 0)
(-21.8323 0.10628 0 11953.6 21.4869 0 0 0 0)
(-23.329 0.107457 0 11836.4 22.8785 0 0 0 0)
(-24.9876 0.121134 0 11684.7 24.7373 0 0 0 0)
(-26.6613 0.130838 0 11531.5 26.6907 0 0 0 0)
(-28.2082 0.102782 0 11396.4 28.4047 0 0 0 0)
(-29.7472 0.0850999 0 11251.7 29.5872 0 0 0 0)
(-31.1666 0.117125 0 11081.6 31.1886 0 0 0 0)
(-33.6326 0.140222 0 10920.2 33.4621 0 0 0 0)
(-35.7948 0.174541 0 10727.3 35.6936 0 0 0 0)
(-38.8723 0.207522 0 10541.1 38.7931 0 0 0 0)
(-41.7301 0.187342 0 10322.1 41.6582 0 0 0 0)
(-44.3889 0.211731 0 10113.8 44.1968 0 0 0 0)
(-47.841 0.256243 0 9874.2 47.5438 0 0 0 0)
(-51.3141 0.248766 0 9648.37 51.2759 0 0 0 0)
(-55.3269 0.27785 0 9382.45 54.8709 0 0 0 0)
(-59.5732 0.343458 0 9096.99 59.1604 0 0 0 0)
(-64.6233 0.401026 0 8803.11 64.1232 0 0 0 0)
(-70.0384 0.543772 0 8473.24 70.1942 0 0 0 0)
(-80.1391 0.985397 0 8129.76 78.8052 0 0 0 0)
(-95.952 3.15378 0 7745.31 93.2889 0 0 0 0)
(170.201 -0.502578 0 12658.3 -6.63438 0 0 0 0)
(-1.80017 0.73002 0 11249.8 -2.65708 0 0 0 0)
(-7.47366 0.610512 0 11286 7.6745 0 0 0 0)
(-11.8548 0.142088 0 11313.4 12.0541 0 0 0 0)
(-13.2585 0.00216296 0 11319.5 13.2144 0 0 0 0)
(-13.4012 -0.0223349 0 11306.7 13.3867 0 0 0 0)
(-13.3729 -0.0204221 0 11282.8 13.321 0 0 0 0)
(-13.336 -0.00201789 0 11251.7 13.2201 0 0 0 0)
(-13.6973 0.0166667 0 11210.6 13.6289 0 0 0 0)
(-14.1823 0.0203015 0 11166.1 14.1314 0 0 0 0)
(-14.6389 0.0200798 0 11119.4 14.5881 0 0 0 0)
(-14.988 0.0112533 0 11065.7 14.9585 0 0 0 0)
(-15.325 0.0150422 0 11008.3 15.2639 0 0 0 0)
(-16.1944 0.0790695 0 10939.3 15.9831 0 0 0 0)
(-17.6084 0.13804 0 10866.9 17.4844 0 0 0 0)
(-19.1304 0.106906 0 10794.3 19.1981 0 0 0 0)
(-19.9754 0.0357654 0 10722.6 20.0217 0 0 0 0)
(-20.7015 0.0127157 0 10639.6 20.6105 0 0 0 0)
(-21.6024 0.0550873 0 10542.9 21.4288 0 0 0 0)
(-22.683 0.110673 0 10439.9 22.6691 0 0 0 0)
(-24.132 0.136698 0 10334.3 24.0305 0 0 0 0)
(-25.8708 0.144431 0 10243.7 25.489 0 0 0 0)
(-27.8697 0.165202 0 10138 27.4557 0 0 0 0)
(-29.9109 0.174611 0 10019.6 29.5652 0 0 0 0)
(-31.1916 0.138114 0 9896.53 31.4074 0 0 0 0)
(-33.076 0.120429 0 9785.77 32.7642 0 0 0 0)
(-34.6461 0.165357 0 9659.02 34.5702 0 0 0 0)
(-37.1491 0.19628 0 9522.87 37.1076 0 0 0 0)
(-39.7608 0.241757 0 9386.94 39.6022 0 0 0 0)
(-43.1232 0.28205 0 9223.5 43.1505 0 0 0 0)
(-46.2844 0.255806 0 9065.01 46.1486 0 0 0 0)
(-49.3107 0.287911 0 8886.43 49.0669 0 0 0 0)
(-52.8262 0.346902 0 8712.44 52.5269 0 0 0 0)
(-56.7895 0.347112 0 8519.41 56.8117 0 0 0 0)
(-61.3253 0.381006 0 8308.78 61.0213 0 0 0 0)
(-65.6119 0.462459 0 8088.89 65.6203 0 0 0 0)
(-71.6718 0.548737 0 7851.8 71.1931 0 0 0 0)
(-77.618 0.740534 0 7606.79 77.7018 0 0 0 0)
(-88.9347 1.30838 0 7324.08 87.1157 0 0 0 0)
(-105.233 3.62793 0 7032.66 102.682 0 0 0 0)
(198.311 -0.585942 0 9427.22 -4.4576 0 0 0 0)
(-13.3616 0.854174 0 9444.55 -2.40381 0 0 0 0)
(-6.81065 0.748835 0 9473.13 6.89739 0 0 0 0)
(-11.3373 0.199082 0 9509.85 11.5834 0 0 0 0)
(-13.0832 0.0182199 0 9535.56 13.055 0 0 0 0)
(-13.5377 -0.0189049 0 9542.47 13.564 0 0 0 0)
(-13.7188 -0.0203436 0 9537.28 13.6757 0 0 0 0)
(-13.8856 0.00268907 0 9522.32 13.7869 0 0 0 0)
(-14.3879 0.0269023 0 9494.72 14.3365 0 0 0 0)
(-14.9254 0.0309379 0 9464.82 14.9124 0 0 0 0)
(-15.4912 0.0296662 0 9434.24 15.4216 0 0 0 0)
(-15.973 0.019764 0 9397.19 15.9562 0 0 0 0)
(-16.4627 0.0278368 0 9352.7 16.3982 0 0 0 0)
(-17.4816 0.103732 0 9300.01 17.3322 0 0 0 0)
(-18.9613 0.172668 0 9245.29 18.8304 0 0 0 0)
(-20.4606 0.134487 0 9190.37 20.5252 0 0 0 0)
(-21.3996 0.0530227 0 9138.41 21.4297 0 0 0 0)
(-22.4567 0.0314081 0 9074.55 22.3866 0 0 0 0)
(-23.5969 0.0801658 0 8997.58 23.4062 0 0 0 0)
(-24.7151 0.139857 0 8914.92 24.7731 0 0 0 0)
(-26.1802 0.168877 0 8833.51 26.0376 0 0 0 0)
(-27.7165 0.184234 0 8754.75 27.5698 0 0 0 0)
(-30.0448 0.213304 0 8683.91 29.6048 0 0 0 0)
(-32.156 0.220955 0 8604.22 31.8184 0 0 0 0)
(-33.58 0.176386 0 8505.74 33.7426 0 0 0 0)
(-35.2504 0.158639 0 8410.16 35.325 0 0 0 0)
(-37.3192 0.219071 0 8314.71 37.3546 0 0 0 0)
(-40.0607 0.259326 0 8203.18 40.0307 0 0 0 0)
(-42.9341 0.319029 0 8096.21 42.8056 0 0 0 0)
(-46.6173 0.365273 0 7970.68 46.6571 0 0 0 0)
(-49.9151 0.331254 0 7845.99 49.8265 0 0 0 0)
(-53.0233 0.368332 0 7709.51 52.9327 0 0 0 0)
(-56.9192 0.44823 0 7576.13 56.5811 0 0 0 0)
(-61.3915 0.461205 0 7425.81 61.1798 0 0 0 0)
(-66.1698 0.500221 0 7272.07 65.844 0 0 0 0)
(-71.1987 0.602696 0 7092.38 70.8053 0 0 0 0)
(-76.9838 0.711607 0 6914.61 76.6986 0 0 0 0)
(-83.7018 0.95705 0 6714.5 83.9463 0 0 0 0)
(-95.1244 1.63962 0 6500.37 93.6495 0 0 0 0)
(-111.898 4.05113 0 6288.7 109.881 0 0 0 0)
(201.487 -0.641301 0 6818.26 -2.51674 0 0 0 0)
(-0.615176 0.947405 0 7907.15 -1.85149 0 0 0 0)
(-6.21358 0.879949 0 7922.82 6.20524 0 0 0 0)
(-10.6376 0.261799 0 7960.54 10.8962 0 0 0 0)
(-12.6154 0.0410899 0 7995.5 12.5998 0 0 0 0)
(-13.3643 -0.0099909 0 8013.57 13.4414 0 0 0 0)
(-13.7736 -0.0159058 0 8021.09 13.7481 0 0 0 0)
(-14.194 0.0114238 0 8017.27 14.115 0 0 0 0)
(-14.867 0.0396473 0 8000.49 14.825 0 0 0 0)
(-15.4236 0.0426328 0 7980.62 15.4493 0 0 0 0)
(-16.0401 0.0417873 0 7961.12 15.9601 0 0 0 0)
(-16.694 0.031753 0 7937.72 16.7096 0 0 0 0)
(-17.3781 0.0442337 0 7903.05 17.3045 0 0 0 0)
(-18.4834 0.131065 0 7863.84 18.3578 0 0 0 0)
(-19.9654 0.206821 0 7823.85 19.8781 0 0 0 0)
(-21.4489 0.163339 0 7783.93 21.506 0 0 0 0)
(-22.513 0.0766805 0 7746.71 22.4999 0 0 0 0)
(-23.8153 0.0565559 0 7699.24 23.7862 0 0 0 0)
(-25.1637 0.108477 0 7641.59 25.0057 0 0 0 0)
(-26.377 0.17 0 7577.81 26.438 0 0 0 0)
(-27.7701 0.200347 0 7515.65 27.6158 0 0 0 0)
(-29.3017 0.226421 0 7456.01 29.1899 0 0 0 0)
(-31.3477 0.263698 0 7395.84 31.2717 0 0 0 0)
(-34.0754 0.271393 0 7348.96 33.605 0 0 0 0)
(-35.7685 0.22091 0 7276.6 35.565 0 0 0 0)
(-37.6281 0.206626 0 7198.64 37.3738 0 0 0 0)
(-39.618 0.278605 0 7118.29 39.6472 0 0 0 0)
(-42.442 0.32859 0 7030.14 42.3924 0 0 0 0)
(-45.4461 0.404185 0 6944.44 45.2976 0 0 0 0)
(-49.2941 0.455505 0 6853.41 49.4129 0 0 0 0)
(-52.7875 0.412328 0 6753.94 52.739 0 0 0 0)
(-56.0919 0.458035 0 6652.77 55.9469 0 0 0 0)
(-60.019 0.556502 0 6546.34 59.7725 0 0 0 0)
(-64.5633 0.584594 0 6438.19 64.5807 0 0 0 0)
(-69.9371 0.63009 0 6319.7 69.6855 0 0 0 0)
(-74.9169 0.745884 0 6184.61 74.8931 0 0 0 0)
(-81.6185 0.895259 0 6048.05 81.1214 0 0 0 0)
(-88.6152 1.1916 0 5889.92 88.8403 0 0 0 0)
(-100.343 2.00528 0 5727.47 98.724 0 0 0 0)
(-117.395 4.46955 0 5571.1 115.305 0 0 0 0)
(205.16 -0.680432 0 6730.75 -1.41857 0 0 0 0)
(8.15328 1.02569 0 6632.03 -1.13139 0 0 0 0)
(-5.75375 1.00069 0 6635.48 5.69903 0 0 0 0)
(-9.88522 0.326552 0 6669.64 10.1393 0 0 0 0)
(-12.0141 0.0695115 0 6706.07 12.0076 0 0 0 0)
(-13.0158 0.00447184 0 6729.03 13.1166 0 0 0 0)
(-13.6416 -0.006447 0 6744.37 13.6132 0 0 0 0)
(-14.3113 0.0250934 0 6747.71 14.2343 0 0 0 0)
(-15.1519 0.0548217 0 6740.21 15.1355 0 0 0 0)
(-15.7539 0.0548848 0 6727.8 15.8339 0 0 0 0)
(-16.4028 0.0565568 0 6714.52 16.284 0 0 0 0)
(-17.2194 0.0487014 0 6701.18 17.2454 0 0 0 0)
(-18.0625 0.0636648 0 6675.16 18.0116 0 0 0 0)
(-19.2116 0.160123 0 6647.39 19.109 0 0 0 0)
(-20.723 0.242227 0 6618.74 20.682 0 0 0 0)
(-22.1766 0.192871 0 6590.16 22.2339 0 0 0 0)
(-23.3017 0.104395 0 6564.02 23.2864 0 0 0 0)
(-24.8399 0.0883675 0 6530.51 24.8283 0 0 0 0)
(-26.3749 0.140992 0 6489.46 26.2435 0 0 0 0)
(-27.6212 0.200176 0 6442.52 27.7201 0 0 0 0)
(-29.0174 0.233144 0 6396.21 28.8611 0 0 0 0)
(-30.5332 0.270396 0 6350.24 30.4728 0 0 0 0)
(-32.5863 0.318302 0 6305.23 32.5022 0 0 0 0)
(-35.006 0.323899 0 6259.94 35.0447 0 0 0 0)
(-37.2094 0.267607 0 6228.81 36.9638 0 0 0 0)
(-39.1058 0.258442 0 6163.29 39.0068 0 0 0 0)
(-41.4675 0.342885 0 6101.83 41.5522 0 0 0 0)
(-44.3794 0.399923 0 6025.14 44.3233 0 0 0 0)
(-47.3638 0.495483 0 5970.34 47.1967 0 0 0 0)
(-51.4377 0.553806 0 5891.83 51.5469 0 0 0 0)
(-55.0373 0.498355 0 5826.39 54.9986 0 0 0 0)
(-58.3704 0.549907 0 5738.47 58.3047 0 0 0 0)
(-62.4989 0.673268 0 5667.19 62.2081 0 0 0 0)
(-67.3434 0.721911 0 5573.94 67.2613 0 0 0 0)
(-72.8862 0.773888 0 5489.93 72.7078 0 0 0 0)
(-78.4669 0.909132 0 5387.85 78.1184 0 0 0 0)
(-84.9293 1.08861 0 5278.88 84.6672 0 0 0 0)
(-92.4265 1.43726 0 5164.06 92.5908 0 0 0 0)
(-103.872 2.36842 0 5035.88 102.662 0 0 0 0)
(-121.026 4.86849 0 4925.63 119.449 0 0 0 0)
(225.608 -0.702327 0 5854.39 -0.212719 0 0 0 0)
(-2.76971 1.09098 0 5602.02 -0.330331 0 0 0 0)
(-5.44921 1.10831 0 5596.18 5.32014 0 0 0 0)
(-9.19225 0.390765 0 5623.96 9.35813 0 0 0 0)
(-11.3888 0.102618 0 5657.09 11.3908 0 0 0 0)
(-12.5649 0.0235 0 5682.01 12.6593 0 0 0 0)
(-13.38 0.00769535 0 5701.83 13.3651 0 0 0 0)
(-14.2815 0.0438578 0 5709.51 14.2132 0 0 0 0)
(-15.2926 0.0739737 0 5708.92 15.2939 0 0 0 0)
(-15.9781 0.0674633 0 5702.06 16.1164 0 0 0 0)
(-16.6194 0.0726759 0 5692.26 16.4439 0 0 0 0)
(-17.5603 0.0698559 0 5686.22 17.6023 0 0 0 0)
(-18.5724 0.0857467 0 5668.33 18.5317 0 0 0 0)
(-19.7474 0.191072 0 5649.07 19.6387 0 0 0 0)
(-21.2587 0.277596 0 5629.16 21.2385 0 0 0 0)
(-22.6967 0.222823 0 5609.95 22.7235 0 0 0 0)
(-23.8874 0.136639 0 5591.08 23.8707 0 0 0 0)
(-25.5478 0.125449 0 5567.9 25.5102 0 0 0 0)
(-27.2269 0.176459 0 5542.16 27.1293 0 0 0 0)
(-28.5844 0.232047 0 5508.48 28.662 0 0 0 0)
(-29.9745 0.266267 0 5474.36 29.8226 0 0 0 0)
(-31.4952 0.31439 0 5439.18 31.4446 0 0 0 0)
(-33.5447 0.375196 0 5403.56 33.4343 0 0 0 0)
(-35.9535 0.381106 0 5371.86 35.9751 0 0 0 0)
(-38.1651 0.319323 0 5338.72 38.1134 0 0 0 0)
(-40.8109 0.321753 0 5303.22 40.2631 0 0 0 0)
(-43.1092 0.41309 0 5249.15 43.0418 0 0 0 0)
(-45.7872 0.472607 0 5192.51 45.8942 0 0 0 0)
(-48.8756 0.590367 0 5136.22 48.7656 0 0 0 0)
(-53.0254 0.65817 0 5089.69 53.1446 0 0 0 0)
(-56.8052 0.589556 0 5030.18 56.8678 0 0 0 0)
(-60.2979 0.648959 0 4972.43 60.1472 0 0 0 0)
(-64.4079 0.795882 0 4906.97 64.2076 0 0 0 0)
(-69.3289 0.867697 0 4848.63 69.2213 0 0 0 0)
(-74.9897 0.925451 0 4781.93 74.962 0 0 0 0)
(-80.6936 1.07429 0 4708.17 80.6519 0 0 0 0)
(-87.8122 1.29647 0 4629.59 87.3116 0 0 0 0)
(-95.3986 1.69501 0 4529.85 95.715 0 0 0 0)
(-107.063 2.76419 0 4439.9 105.671 0 0 0 0)
(-124.003 5.2768 0 4355.63 122.32 0 0 0 0)
(226.559 -0.702257 0 4893.12 1.19274 0 0 0 0)
(3.06222 1.14014 0 4760.57 0.46227 0 0 0 0)
(-5.29585 1.20201 0 4749.48 5.13365 0 0 0 0)
(-8.60664 0.453856 0 4770.46 8.70493 0 0 0 0)
(-10.7847 0.139461 0 4798.29 10.8334 0 0 0 0)
(-12.0586 0.0467037 0 4823.51 12.1435 0 0 0 0)
(-13.0481 0.0271804 0 4844.9 13.0585 0 0 0 0)
(-14.1564 0.0671974 0 4854.96 14.086 0 0 0 0)
(-15.3149 0.0966867 0 4859.38 15.3266 0 0 0 0)
(-16.1231 0.0803574 0 4857.36 16.3261 0 0 0 0)
(-16.7561 0.0899294 0 4849.5 16.5355 0 0 0 0)
(-17.7596 0.0959201 0 4847.66 17.8223 0 0 0 0)
(-18.9078 0.110156 0 4837.8 18.8877 0 0 0 0)
(-20.111 0.222482 0 4825.34 20.0184 0 0 0 0)
(-21.6295 0.31388 0 4811.67 21.6498 0 0 0 0)
(-23.0673 0.254559 0 4799.64 23.0874 0 0 0 0)
(-24.2948 0.170388 0 4786.45 24.3082 0 0 0 0)
(-26.005 0.166204 0 4770.79 25.9394 0 0 0 0)
(-27.8038 0.216982 0 4756.45 27.7624 0 0 0 0)
(-29.2662 0.265642 0 4733.84 29.3407 0 0 0 0)
(-30.7151 0.301502 0 4709.46 30.6036 0 0 0 0)
(-32.2842 0.359893 0 4681.49 32.2726 0 0 0 0)
(-34.2654 0.431577 0 4653.62 34.1803 0 0 0 0)
(-36.6383 0.441906 0 4630.61 36.6773 0 0 0 0)
(-38.9545 0.376819 0 4608.32 38.9229 0 0 0 0)
(-41.3945 0.385105 0 4578.68 41.2985 0 0 0 0)
(-44.3323 0.488933 0 4557.26 44.176 0 0 0 0)
(-47.3352 0.549714 0 4497.65 47.2187 0 0 0 0)
(-50.0731 0.687101 0 4462.83 49.8622 0 0 0 0)
(-54.2602 0.769682 0 4417.19 54.3219 0 0 0 0)
(-58.1851 0.686656 0 4385.89 58.2123 0 0 0 0)
(-61.708 0.74918 0 4328.6 61.6437 0 0 0 0)
(-65.8826 0.921914 0 4289.59 65.601 0 0 0 0)
(-70.7935 1.01928 0 4234.41 70.7439 0 0 0 0)
(-76.8009 1.09288 0 4192.09 76.6509 0 0 0 0)
(-82.7532 1.25706 0 4126.44 82.7605 0 0 0 0)
(-89.9881 1.51685 0 4066.49 89.6786 0 0 0 0)
(-97.8563 1.96387 0 4001.25 97.8395 0 0 0 0)
(-108.894 3.13869 0 3926.4 108.003 0 0 0 0)
(-125.777 5.68257 0 3875.83 124.028 0 0 0 0)
(239.982 -0.678933 0 4301.24 2.08458 0 0 0 0)
(-5.98325 1.17467 0 4083.75 1.18802 0 0 0 0)
(-5.23622 1.28399 0 4071.29 5.08097 0 0 0 0)
(-8.14169 0.513351 0 4085.81 8.16134 0 0 0 0)
(-10.2365 0.177297 0 4107.87 10.2989 0 0 0 0)
(-11.5427 0.0723031 0 4132.2 11.5754 0 0 0 0)
(-12.6846 0.0507638 0 4153.39 12.6804 0 0 0 0)
(-13.9576 0.094607 0 4165.25 13.8598 0 0 0 0)
(-15.2378 0.124522 0 4173.2 15.2474 0 0 0 0)
(-16.2029 0.0949097 0 4175.43 16.45 0 0 0 0)
(-16.8407 0.107149 0 4169.18 16.5943 0 0 0 0)
(-17.8306 0.124376 0 4169.63 17.8635 0 0 0 0)
(-19.0928 0.137148 0 4166.95 19.0491 0 0 0 0)
(-20.3629 0.256352 0 4159.25 20.2808 0 0 0 0)
(-21.869 0.350683 0 4150.06 21.8924 0 0 0 0)
(-23.3013 0.286709 0 4143.68 23.2774 0 0 0 0)
(-24.5861 0.205894 0 4134.73 24.6066 0 0 0 0)
(-26.2798 0.210076 0 4124.05 26.1682 0 0 0 0)
(-28.1379 0.260506 0 4118.51 28.0937 0 0 0 0)
(-29.7538 0.3029 0 4103.93 29.7781 0 0 0 0)
(-31.2901 0.340133 0 4086.27 31.2148 0 0 0 0)
(-32.9113 0.405244 0 4065.15 32.8563 0 0 0 0)
(-34.8464 0.488151 0 4042.67 34.7674 0 0 0 0)
(-37.1224 0.503751 0 4024.88 37.1006 0 0 0 0)
(-39.5186 0.44003 0 4010.63 39.4296 0 0 0 0)
(-42.1572 0.460332 0 3989.08 42.0464 0 0 0 0)
(-45.2641 0.570558 0 3962.3 45.2005 0 0 0 0)
(-48.3102 0.62508 0 3928.76 48.3279 0 0 0 0)
(-51.0523 0.782889 0 3898.95 50.7395 0 0 0 0)
(-55.121 0.886308 0 3864.77 55.1263 0 0 0 0)
(-59.2472 0.791481 0 3835.55 59.3994 0 0 0 0)
(-62.9732 0.854694 0 3799.36 62.8717 0 0 0 0)
(-67.0513 1.05164 0 3757.31 66.9072 0 0 0 0)
(-72.0885 1.18108 0 3726.29 71.8854 0 0 0 0)
(-78.0738 1.26927 0 3685.91 78.0495 0 0 0 0)
(-84.3117 1.45055 0 3649.2 84.177 0 0 0 0)
(-91.4507 1.73585 0 3595.73 91.4064 0 0 0 0)
(-99.5079 2.23397 0 3548.86 99.6015 0 0 0 0)
(-110.781 3.54228 0 3494.71 109.702 0 0 0 0)
(-127.181 6.10416 0 3452.67 125.725 0 0 0 0)
(238.43 -0.643887 0 3177.69 2.53593 0 0 0 0)
(-1.73745 1.20556 0 3524.61 1.81339 0 0 0 0)
(-5.24901 1.35442 0 3513.64 5.07873 0 0 0 0)
(-7.79952 0.568973 0 3523.07 7.75255 0 0 0 0)
(-9.75104 0.215484 0 3540.77 9.8248 0 0 0 0)
(-11.0347 0.100294 0 3563.73 11.0327 0 0 0 0)
(-12.2984 0.0791148 0 3583.02 12.3354 0 0 0 0)
(-13.7024 0.126086 0 3595.84 13.6443 0 0 0 0)
(-15.0792 0.156613 0 3605.92 15.1062 0 0 0 0)
(-16.2168 0.111704 0 3611.94 16.478 0 0 0 0)
(-16.8916 0.123326 0 3607.39 16.6468 0 0 0 0)
(-17.812 0.154271 0 3609.05 17.8324 0 0 0 0)
(-19.1556 0.168188 0 3611.49 19.1389 0 0 0 0)
(-20.5188 0.291359 0 3607.51 20.4732 0 0 0 0)
(-22.0082 0.387048 0 3601.78 22.0331 0 0 0 0)
(-23.4442 0.321494 0 3599.23 23.4093 0 0 0 0)
(-24.7822 0.242345 0 3593.42 24.8555 0 0 0 0)
(-26.41 0.253796 0 3587.24 26.2512 0 0 0 0)
(-28.3126 0.308476 0 3586.96 28.2981 0 0 0 0)
(-30.0891 0.345486 0 3578.03 30.1243 0 0 0 0)
(-31.7146 0.380988 0 3566.04 31.6952 0 0 0 0)
(-33.4183 0.452467 0 3549.81 33.3625 0 0 0 0)
(-35.3218 0.543153 0 3532.29 35.3107 0 0 0 0)
(-37.486 0.56556 0 3518.07 37.4207 0 0 0 0)
(-39.9113 0.509315 0 3508.19 39.8853 0 0 0 0)
(-42.698 0.541131 0 3493.9 42.5902 0 0 0 0)
(-45.9749 0.660269 0 3475.2 45.9668 0 0 0 0)
(-49.0747 0.702027 0 3451.64 49.2491 0 0 0 0)
(-51.8478 0.87607 0 3424.16 51.6032 0 0 0 0)
(-56.0367 1.01243 0 3400.8 55.6579 0 0 0 0)
(-60.0321 0.905683 0 3384.42 60.1594 0 0 0 0)
(-63.9376 0.963538 0 3355.05 63.9138 0 0 0 0)
(-67.9826 1.18162 0 3324.52 67.7586 0 0 0 0)
(-72.8632 1.34327 0 3296.9 72.7557 0 0 0 0)
(-79.0577 1.45348 0 3274.35 78.847 0 0 0 0)
(-85.4192 1.65268 0 3238.73 85.3505 0 0 0 0)
(-92.9856 1.97803 0 3205.14 92.6502 0 0 0 0)
(-100.899 2.51583 0 3156.96 101.256 0 0 0 0)
(-111.808 3.93411 0 3124.22 111.059 0 0 0 0)
(-127.981 6.53364 0 3102.27 126.021 0 0 0 0)
(235.998 -0.595506 0 3206.54 3.64597 0 0 0 0)
(1.43906 1.23157 0 3065.02 2.30599 0 0 0 0)
(-5.26869 1.41714 0 3057.74 5.12092 0 0 0 0)
(-7.52707 0.620753 0 3064.3 7.48898 0 0 0 0)
(-9.30711 0.252175 0 3079.51 9.42838 0 0 0 0)
(-10.5689 0.130259 0 3099.98 10.5604 0 0 0 0)
(-11.9379 0.111624 0 3116.17 11.9996 0 0 0 0)
(-13.4195 0.159756 0 3128.86 13.3765 0 0 0 0)
(-14.8557 0.191745 0 3140.47 14.8861 0 0 0 0)
(-16.168 0.131687 0 3149.66 16.4246 0 0 0 0)
(-16.9093 0.139978 0 3147.38 16.7168 0 0 0 0)
(-17.7298 0.185139 0 3149.5 17.7554 0 0 0 0)
(-19.1304 0.202143 0 3154.8 19.1132 0 0 0 0)
(-20.6032 0.328242 0 3153.78 20.5996 0 0 0 0)
(-22.0753 0.424221 0 3150.61 22.1444 0 0 0 0)
(-23.5121 0.358092 0 3150.4 23.4953 0 0 0 0)
(-24.891 0.278387 0 3147.53 25.0057 0 0 0 0)
(-26.444 0.298804 0 3145.03 26.2773 0 0 0 0)
(-28.3767 0.361178 0 3147.17 28.435 0 0 0 0)
(-30.3012 0.391999 0 3142.95 30.3359 0 0 0 0)
(-32.0362 0.425889 0 3135.11 32.1065 0 0 0 0)
(-33.8115 0.501865 0 3122.33 33.7867 0 0 0 0)
(-35.7 0.59754 0 3109.81 35.7672 0 0 0 0)
(-37.7764 0.628231 0 3097.75 37.7551 0 0 0 0)
(-40.181 0.582002 0 3090.75 40.1743 0 0 0 0)
(-43.0696 0.628973 0 3081.04 43.0322 0 0 0 0)
(-46.4433 0.756788 0 3069.24 46.4926 0 0 0 0)
(-49.7497 0.784043 0 3055.61 50.0041 0 0 0 0)
(-52.4974 0.965534 0 3029.49 52.4093 0 0 0 0)
(-56.2531 1.13214 0 3015.8 55.9988 0 0 0 0)
(-60.5727 1.03092 0 3016.17 60.5714 0 0 0 0)
(-64.7241 1.07715 0 2985.96 64.8331 0 0 0 0)
(-68.7662 1.31294 0 2965.22 68.5151 0 0 0 0)
(-73.5824 1.51179 0 2937.85 73.5247 0 0 0 0)
(-79.8226 1.64829 0 2920.15 79.7873 0 0 0 0)
(-86.4108 1.86984 0 2894.62 86.3616 0 0 0 0)
(-93.9504 2.22332 0 2868.53 93.8482 0 0 0 0)
(-102.004 2.80332 0 2844.26 102.022 0 0 0 0)
(-112.481 4.31551 0 2811.31 112.089 0 0 0 0)
(-128.279 6.96945 0 2800.22 126.561 0 0 0 0)
(241.989 -0.522223 0 2884.69 4.193 0 0 0 0)
(-5.24166 1.23941 0 2689.91 2.6739 0 0 0 0)
(-5.26391 1.4736 0 2686.99 5.10815 0 0 0 0)
(-7.29337 0.668947 0 2692.31 7.23277 0 0 0 0)
(-8.91459 0.287386 0 2706 9.01728 0 0 0 0)
(-10.1686 0.161173 0 2722.76 10.1252 0 0 0 0)
(-11.6097 0.146375 0 2736.65 11.6362 0 0 0 0)
(-13.1169 0.195681 0 2748.62 13.0773 0 0 0 0)
(-14.5729 0.230789 0 2760.96 14.5967 0 0 0 0)
(-16.0475 0.156554 0 2772.27 16.2756 0 0 0 0)
(-16.8946 0.156367 0 2773.39 16.779 0 0 0 0)
(-17.6258 0.21418 0 2774.92 17.5978 0 0 0 0)
(-19.0478 0.239994 0 2781.12 18.9986 0 0 0 0)
(-20.6249 0.36857 0 2782.48 20.6534 0 0 0 0)
(-22.0939 0.461413 0 2781.48 22.1608 0 0 0 0)
(-23.5236 0.395706 0 2782.23 23.4812 0 0 0 0)
(-24.9216 0.315112 0 2782.06 25.0468 0 0 0 0)
(-26.4181 0.344457 0 2782.55 26.2471 0 0 0 0)
(-28.368 0.416626 0 2785.24 28.3939 0 0 0 0)
(-30.4127 0.444273 0 2784.75 30.4154 0 0 0 0)
(-32.2737 0.474676 0 2780.56 32.4068 0 0 0 0)
(-34.11 0.552783 0 2770.46 34.0418 0 0 0 0)
(-36.0001 0.652848 0 2761.82 36.1122 0 0 0 0)
(-38.0163 0.688514 0 2752 37.9482 0 0 0 0)
(-40.3812 0.657959 0 2746.55 40.322 0 0 0 0)
(-43.3077 0.720748 0 2739.46 43.3089 0 0 0 0)
(-46.7015 0.86024 0 2733.43 46.6542 0 0 0 0)
(-50.2239 0.873155 0 2728.1 50.539 0 0 0 0)
(-53.0068 1.05122 0 2708.55 52.9093 0 0 0 0)
(-56.4267 1.25309 0 2698.13 56.2094 0 0 0 0)