/*--------------------------------*- C++ -*----------------------------------*    | =========                 |                                                 |
    | \      /  F ield         | OpenFOAM: The Open Source CFD Toolbox           |
    |  \    /   O peration     | Version:  v2006                                 |
    |   \  /    A nd           | Website:  www.openfoam.com                      |
    |    \/     M anipulation  |                                                 |
    \*---------------------------------------------------------------------------*/
    FoamFile
    {
        version     2.0;
        format      ascii;
        class       volScalarField;
        object      epsilon;
    }
    // * * * * * * * * * * * * * * * * * * * * * * * * * * * * * * * * * * * * * //
    
dimensions      [ 0 0 -1 0 0 0 0 ];

internalField   uniform 17.764;

boundaryField
{
    bottom
    {
        type            omegaWallFunction;
		value			$internalField;
    }
    "(top|outlet)"
    {
        type            zeroGradient;
    }
    inlet
    {
        type            fixedValue;
		value			nonuniform List<scalar>
    
    175 (
        3261899.632038606 829113.5941448379 228546.70967741936 106574.53869254475 64827.019000786786 45648.61815499607 34829.48493968004 27819.32609493837 22889.27102019407 19238.32391817467 16437.953658536586 14237.309507573274 12475.807212641796 11044.576978558784 9865.67750065565 8881.674301075269 8048.8932894046675 7336.8743905635665 6722.121521311476 6186.922196721311 5717.408537704918 5302.705399737877 4934.131140983606 4604.846393442624 4309.080203278689 4042.1902557377052 3800.379337704918 3580.3892655737704 3379.545422950819 3195.577704918033 3026.568596721311 2870.8468655737706 2726.9661967213115 2593.725613114754 2470.046924590164 2354.9849901639345 2247.7277064220184 2147.5777195281785 2053.869698360656 1966.053744262295 1883.6207672131147 1806.144426229508 1733.2133180327867 1664.464875491481 1599.5799016393444 1538.28 1480.2940065573769 1425.3814098360658 1373.3293967213115 1323.9403278688526 1277.044524590164 1232.467213114754 1190.0637377049181 1149.689737704918 1111.2184665792922 1074.5541180327868 1039.5760655737706 1006.1697639344262 974.2735245901639 943.7857016393443 914.63250982962 886.7402714754097 860.0398019672131 834.4714367213115 809.9773180327869 786.4999508196722 763.9908131147541 742.4003167213116 721.686693114754 701.8067581913499 682.7222950819672 664.397262295082 646.7973226229508 629.8876405228758 613.6446862745097 598.0330789473684 583.0338552631579 568.61225 554.7561633986928 541.433091503268 528.6275 516.3210849673203 504.4957647058824 493.13129411764703 482.21097368421056 471.72405263157896 461.6533092105263 451.9878954248366 442.71260526315785 433.802 425.2320522875817 416.967552631579 408.992751633987 401.2872105263158 393.83151315789473 386.60854901960784 379.6047058823529 372.80391503267975 366.1926993464052 359.7563986928105 353.4789411764706 347.34571895424835 341.3362483660131 335.43620394736837 329.62023684210527 323.8629607843137 318.13456578947364 312.39584313725493 306.60263157894735 300.69401960784313 294.5980130718954 288.2250588235294 281.47490196078434 274.28 266.88125 259.46506578947367 251.92222875816998 244.1571644736842 236.12301960784316 227.84546405228755 219.36867320261436 210.65676973684214 201.54246052631578 191.83784210526318 181.43786274509807 170.28178431372552 158.37073856209153 145.80121568627453 132.7826470588235 119.64286842105264 106.78332894736845 94.61620784313725 83.47670263157897 73.56822745098039 64.95066862745097 57.55761960784316 51.21522679738562 45.656206578947376 40.560642105263156 35.79988421052631 31.765225 28.63791184210526 26.195065789473688 24.24868431372549 22.671857894736842 21.376907236842108 20.30163289473684 19.40078815789474 18.640464705882355 17.994991503267975 17.444630065359476 16.97368235294118 16.569730263157894 16.222752941176473 15.924540789473685 15.668207843137255 15.44808947368421 15.259419736842105 15.098025 14.96025 14.84324 14.744137499999999 14.6606625 14.590766666666667 14.5324875 14.484259999999999 14.4448 14.412606666666665 14.38678 14.3662 14.350181249999999 14.338026666666666 14.3292 14.3235 14.3206 );
    }
    
    }
    // ************************************************************************* //