/*--------------------------------*- C++ -*----------------------------------*\
| =========                 |                                                 |
| \\      /  F ield         | OpenFOAM: The Open Source CFD Toolbox           |
|  \\    /   O peration     | Version:  2506                                  |
|   \\  /    A nd           | Website:  www.openfoam.com                      |
|    \\/     M anipulation  |                                                 |
\*---------------------------------------------------------------------------*/
FoamFile
{
    version     2.0;
    format      ascii;
    arch        "LSB;label=32;scalar=64";
    class       volVectorField;
    location    "6000";
    object      U;
}
// * * * * * * * * * * * * * * * * * * * * * * * * * * * * * * * * * * * * * //

dimensions      [0 1 -1 0 0 0 0];

internalField   nonuniform List<vector> 
72100
(
(0.48361018 -3.6378882e-05 0.0)
(0.48775852 -9.673286e-06 0.0)
(0.48430392 2.1716221e-05 0.0)
(0.45929247 2.3604409e-05 0.0)
(0.45389977 2.3159668e-05 0.0)
(0.44888762 2.222024e-05 0.0)
(0.44406217 2.1514508e-05 0.0)
(0.4393808 2.1251313e-05 0.0)
(0.434809 2.1158534e-05 0.0)
(0.4302153 2.101495e-05 0.0)
(0.42564976 2.1376625e-05 0.0)
(0.4211268 2.1599792e-05 0.0)
(0.41660762 2.1492331e-05 0.0)
(0.41225466 2.1340158e-05 0.0)
(0.40747932 2.4093568e-05 0.0)
(0.4022954 2.6688753e-05 0.0)
(0.39665076 2.861702e-05 0.0)
(0.39080694 2.7928032e-05 0.0)
(0.3851279 3.187961e-05 0.0)
(0.37974858 3.23483e-05 0.0)
(0.37392044 3.2179203e-05 0.0)
(0.3672096 4.1593506e-05 0.0)
(0.36067078 3.8745307e-05 0.0)
(0.35325336 4.3222757e-05 0.0)
(0.34539124 4.9463062e-05 0.0)
(0.33723566 4.54543e-05 0.0)
(0.32849342 5.6369026e-05 0.0)
(0.3213314 4.917952e-05 0.0)
(0.31040496 6.291976e-05 0.0)
(0.30130875 5.579043e-05 0.0)
(0.2899434 7.28182e-05 0.0)
(0.27969426 6.319662e-05 0.0)
(0.26682675 8.567652e-05 0.0)
(0.255244 7.410654e-05 0.0)
(0.240803 9.403581e-05 0.0)
(0.22717856 8.9180176e-05 0.0)
(0.21170095 0.00010347013 0.0)
(0.19495583 0.00011576839 0.0)
(0.17816944 0.000118527816 0.0)
(0.15471566 0.0003281717 0.0)
(1.4773371 -0.0002784267 0.0)
(1.4098316 -8.085356e-05 0.0)
(1.401369 0.00016350977 0.0)
(1.3863435 0.00019732343 0.0)
(1.3708605 0.00019285249 0.0)
(1.3566294 0.00018514745 0.0)
(1.3428915 0.00018004436 0.0)
(1.3295504 0.00017741826 0.0)
(1.3165408 0.00017722485 0.0)
(1.3035238 0.00017595007 0.0)
(1.2904273 0.00017879113 0.0)
(1.2774589 0.0001804644 0.0)
(1.2646368 0.00017936232 0.0)
(1.2522211 0.00017879918 0.0)
(1.238613 0.00020313555 0.0)
(1.223581 0.00022601464 0.0)
(1.207408 0.0002410086 0.0)
(1.1910553 0.00023529695 0.0)
(1.1748338 0.00023251478 0.0)
(1.1590358 0.00024617172 0.0)
(1.1424559 0.00026873904 0.0)
(1.1235626 0.00029355235 0.0)
(1.1043056 0.00031148279 0.0)
(1.0832796 0.00033502205 0.0)
(1.0603436 0.0003700943 0.0)
(1.0368558 0.00038203885 0.0)
(1.0121107 0.00039972938 0.0)
(0.9874893 0.00041648807 0.0)
(0.9600047 0.00044705687 0.0)
(0.93276834 0.00047752284 0.0)
(0.9009955 0.0005219807 0.0)
(0.869899 0.00054472714 0.0)
(0.83436495 0.00060281175 0.0)
(0.79848063 0.0006384104 0.0)
(0.75849324 0.0006903829 0.0)
(0.7182279 0.0007352487 0.0)
(0.6734355 0.000807911 0.0)
(0.62580055 0.0008699168 0.0)
(0.5751364 0.0009770546 0.0)
(0.5115364 0.0014612898 0.0)
(2.2353015 -0.00055933517 0.0)
(2.3548396 -0.00019028306 0.0)
(2.341784 0.00043388206 0.0)
(2.3187642 0.00053106085 0.0)
(2.2946072 0.00052090664 0.0)
(2.2721238 0.0004991815 0.0)
(2.2503805 0.00048631267 0.0)
(2.2294085 0.00047787165 0.0)
(2.2090065 0.0004789208 0.0)
(2.1884542 0.00047609487 0.0)
(2.1679382 0.00048341526 0.0)
(2.147248 0.00048778762 0.0)
(2.1268592 0.00048495637 0.0)
(2.1070876 0.00048508195 0.0)
(2.0856142 0.00055097434 0.0)
(2.06154 0.00061460264 0.0)
(2.0357306 0.0006526076 0.0)
(2.0100338 0.00063801766 0.0)
(1.9844654 0.00062949414 0.0)
(1.958503 0.00066322845 0.0)
(1.9320264 0.0007271917 0.0)
(1.9022273 0.0007901649 0.0)
(1.8709325 0.00084497826 0.0)
(1.8369548 0.00092112634 0.0)
(1.8010496 0.0009924438 0.0)
(1.7632164 0.0010357416 0.0)
(1.7243215 0.0010731923 0.0)
(1.683996 0.0011392537 0.0)
(1.6403761 0.0012085526 0.0)
(1.5960335 0.0013094683 0.0)
(1.5454828 0.0014162598 0.0)
(1.4948812 0.0014947485 0.0)
(1.438558 0.0016278411 0.0)
(1.3801943 0.0017472339 0.0)
(1.3166931 0.0018567976 0.0)
(1.2509911 0.0020143338 0.0)
(1.1786352 0.0021948977 0.0)
(1.1020911 0.0023925742 0.0)
(1.0199728 0.0026852766 0.0)
(0.91965336 0.003555533 0.0)
(3.2303927 -0.0010010358 0.0)
(3.2718048 -0.0003134456 0.0)
(3.2559319 0.00080582785 0.0)
(3.2272277 0.001003174 0.0)
(3.1961768 0.0009913852 0.0)
(3.1669664 0.00095089007 0.0)
(3.138688 0.000927156 0.0)
(3.1113102 0.00090840406 0.0)
(3.0846515 0.00091360084 0.0)
(3.0576353 0.000911588 0.0)
(3.0306768 0.00092606636 0.0)
(3.0033495 0.00093519787 0.0)
(2.9762769 0.0009313248 0.0)
(2.9496229 0.0009347197 0.0)
(2.9210973 0.0010591352 0.0)
(2.8892665 0.00118039 0.0)
(2.8548534 0.0012505002 0.0)
(2.8208714 0.0012261603 0.0)
(2.786745 0.0012181166 0.0)
(2.751803 0.0012790351 0.0)
(2.7155552 0.001401831 0.0)
(2.6742992 0.0015276703 0.0)
(2.6344676 0.0016264337 0.0)
(2.5883083 0.0017731031 0.0)
(2.540263 0.0019130313 0.0)
(2.4900086 0.0019924494 0.0)
(2.437012 0.0020814391 0.0)
(2.3840702 0.0022052743 0.0)
(2.3243291 0.0023466542 0.0)
(2.265877 0.0025387418 0.0)
(2.196935 0.0027515886 0.0)
(2.1300724 0.0028979008 0.0)
(2.0536668 0.003163159 0.0)
(1.9763902 0.0033847508 0.0)
(1.890698 0.0036086168 0.0)
(1.802933 0.0038966376 0.0)
(1.7065299 0.004235436 0.0)
(1.6027656 0.0046351943 0.0)
(1.4923574 0.0052108 0.0)
(1.3577853 0.006643789 0.0)
(4.1655645 -0.0014681978 0.0)
(4.125924 -0.00044017076 0.0)
(4.1094866 0.0012459053 0.0)
(4.077747 0.0015834922 0.0)
(4.0419917 0.0015799113 0.0)
(4.007778 0.0015216331 0.0)
(3.974526 0.001484497 0.0)
(3.9423406 0.0014516874 0.0)
(3.91093 0.0014653306 0.0)
(3.8786075 0.0014707869 0.0)
(3.8461556 0.00149726 0.0)
(3.8132126 0.0015135111 0.0)
(3.780566 0.0015111805 0.0)
(3.7479258 0.0015232244 0.0)
(3.7129505 0.001721422 0.0)
(3.6743965 0.0019159971 0.0)
(3.6329384 0.0020210666 0.0)
(3.5917552 0.0019916173 0.0)
(3.5497324 0.0019945828 0.0)
(3.5074768 0.0020925633 0.0)
(3.4615417 0.0022889986 0.0)
(3.4120612 0.0024791579 0.0)
(3.3617966 0.0026549709 0.0)
(3.3075156 0.0028798506 0.0)
(3.2467625 0.0031103133 0.0)
(3.1866417 0.0032349532 0.0)
(3.1220355 0.00338538 0.0)
(3.0576549 0.0035996817 0.0)
(2.9852505 0.0038208887 0.0)
(2.9129133 0.0041485126 0.0)
(2.8295224 0.0044782907 0.0)
(2.7468069 0.004734954 0.0)
(2.653907 0.0051459153 0.0)
(2.5592158 0.0055278298 0.0)
(2.45372 0.0058982396 0.0)
(2.3476624 0.0063548824 0.0)
(2.228887 0.0069185183 0.0)
(2.1039686 0.007537244 0.0)
(1.9678121 0.008505936 0.0)
(1.8037149 0.010596518 0.0)
(4.80617 -0.0018090454 0.0)
(4.8941083 -0.00058408774 0.0)
(4.878937 0.0017007615 0.0)
(4.8466725 0.002227046 0.0)
(4.8085656 0.0022558374 0.0)
(4.771183 0.002184888 0.0)
(4.7344885 0.002134493 0.0)
(4.698833 0.0020868904 0.0)
(4.6638374 0.0021145302 0.0)
(4.627569 0.0021360423 0.0)
(4.5909433 0.0021793814 0.0)
(4.553354 0.002207233 0.0)
(4.5160565 0.0022118362 0.0)
(4.47832 0.0022429258 0.0)
(4.438042 0.0025187067 0.0)
(4.3937097 0.0028016223 0.0)
(4.346362 0.0029448508 0.0)
(4.299254 0.0029212981 0.0)
(4.250279 0.002949396 0.0)
(4.2006006 0.0031012036 0.0)
(4.1480327 0.003368507 0.0)
(4.0907607 0.003636011 0.0)
(4.031717 0.0039043096 0.0)
(3.967325 0.004234235 0.0)
(3.9011948 0.0045449636 0.0)
(3.8304994 0.004733418 0.0)
(3.7582033 0.0049539036 0.0)
(3.682059 0.005290793 0.0)
(3.5994866 0.0056158057 0.0)
(3.5146558 0.00610637 0.0)
(3.4193823 0.006577647 0.0)
(3.323025 0.00696707 0.0)
(3.2174346 0.007540278 0.0)
(3.107329 0.008122438 0.0)
(2.9882054 0.008652001 0.0)
(2.8624103 0.009351784 0.0)
(2.7269022 0.010158262 0.0)
(2.581534 0.011094475 0.0)
(2.4252625 0.012498413 0.0)
(2.239613 0.015294054 0.0)
(5.565927 -0.0022194453 0.0)
(5.5682993 -0.00073241355 0.0)
(5.55522 0.0021448354 0.0)
(5.5240445 0.002899161 0.0)
(5.4855647 0.002983165 0.0)
(5.446815 0.0029124676 0.0)
(5.4082127 0.0028541922 0.0)
(5.3703265 0.0027956662 0.0)
(5.332632 0.0028422754 0.0)
(5.2934127 0.0028892602 0.0)
(5.253715 0.002955159 0.0)
(5.2127004 0.0030000755 0.0)
(5.1718235 0.0030167736 0.0)
(5.129736 0.0030812956 0.0)
(5.084957 0.0034396169 0.0)
(5.03615 0.0038150211 0.0)
(4.984202 0.0040035998 0.0)
(4.931889 0.0040025674 0.0)
(4.8771443 0.004069057 0.0)
(4.8211837 0.004284207 0.0)
(4.7619686 0.004630488 0.0)
(4.699764 0.0049720984 0.0)
(4.6329913 0.0053504887 0.0)
(4.562083 0.0057880655 0.0)
(4.4865723 0.006205452 0.0)
(4.4107647 0.006458846 0.0)
(4.3276052 0.006784043 0.0)
(4.2457266 0.0072458787 0.0)
(4.152314 0.007710474 0.0)
(4.05976 0.008375669 0.0)
(3.9525285 0.0090177255 0.0)
(3.8472013 0.009550895 0.0)
(3.728205 0.010326741 0.0)
(3.6090074 0.011115028 0.0)
(3.4745405 0.011877747 0.0)
(3.3375134 0.012801123 0.0)
(3.186764 0.0139057245 0.0)
(3.0259976 0.015185713 0.0)
(2.852484 0.017092697 0.0)
(2.6465485 0.020762183 0.0)
(6.2180166 -0.0025487007 0.0)
(6.1488776 -0.00088072993 0.0)
(6.137755 0.0025571594 0.0)
(6.108556 0.0035728153 0.0)
(6.0711465 0.003731382 0.0)
(6.032353 0.0036799063 0.0)
(5.99301 0.003622292 0.0)
(5.9538884 0.003563558 0.0)
(5.9143176 0.0036369278 0.0)
(5.873097 0.0037146145 0.0)
(5.831266 0.0038090092 0.0)
(5.787687 0.0038783075 0.0)
(5.743994 0.0039171344 0.0)
(5.6985655 0.004028684 0.0)
(5.650223 0.004472111 0.0)
(5.597788 0.004946429 0.0)
(5.54246 0.0051816157 0.0)
(5.4860964 0.0052240645 0.0)
(5.4263287 0.005343706 0.0)
(5.36517 0.0056341286 0.0)
(5.300833 0.006053352 0.0)
(5.233444 0.0064838747 0.0)
(5.1626472 0.006971726 0.0)
(5.0850286 0.0075374213 0.0)
(5.0052257 0.008053717 0.0)
(4.9221373 0.0083939275 0.0)
(4.8357873 0.008815941 0.0)
(4.7443953 0.009436536 0.0)
(4.6467295 0.010040037 0.0)
(4.543616 0.010927347 0.0)
(4.4307284 0.011733251 0.0)
(4.3144083 0.012448967 0.0)
(4.1894875 0.013408216 0.0)
(4.057789 0.014469584 0.0)
(3.915241 0.015469153 0.0)
(3.764871 0.016683232 0.0)
(3.602945 0.018112196 0.0)
(3.4302669 0.019775558 0.0)
(3.24247 0.022231054 0.0)
(3.0243886 0.026764397 0.0)
(6.642377 -0.002727905 0.0)
(6.6485834 -0.0010073519 0.0)
(6.6387672 0.0029340687 0.0)
(6.6117997 0.0042250743 0.0)
(6.5762734 0.0044778027 0.0)
(6.5383263 0.0044656335 0.0)
(6.4991407 0.0044202874 0.0)
(6.4595513 0.0043746633 0.0)
(6.4187045 0.00448432 0.0)
(6.37607 0.0045972974 0.0)
(6.3328805 0.004721504 0.0)
(6.287635 0.004827793 0.0)
(6.241672 0.004895173 0.0)
(6.1935596 0.0050667985 0.0)
(6.142527 0.0055966624 0.0)
(6.0874443 0.006166057 0.0)
(6.029558 0.0064583197 0.0)
(5.9699445 0.006567133 0.0)
(5.9064026 0.0067504873 0.0)
(5.8409905 0.0071222107 0.0)
(5.7724667 0.0076132487 0.0)
(5.701262 0.008130247 0.0)
(5.626378 0.008741805 0.0)
(5.546401 0.009432777 0.0)
(5.4595804 0.010070754 0.0)
(5.372877 0.010505409 0.0)
(5.278731 0.011063468 0.0)
(5.1841636 0.011831547 0.0)
(5.0784554 0.012614347 0.0)
(4.971616 0.013720453 0.0)
(4.8500714 0.014725827 0.0)
(4.729199 0.015614504 0.0)
(4.594889 0.0168087 0.0)
(4.4585805 0.018123237 0.0)
(4.3064938 0.019420732 0.0)
(4.1489725 0.020911952 0.0)
(3.9778953 0.022691607 0.0)
(3.7942295 0.024802182 0.0)
(3.5962522 0.027820263 0.0)
(3.3660839 0.033349767 0.0)
(7.0179296 -0.0028433874 0.0)
(7.0763454 -0.0010976556 0.0)
(7.067053 0.0032853906 0.0)
(7.042282 0.0048518144 0.0)
(7.0089817 0.00521055 0.0)
(6.9723153 0.0052581406 0.0)
(6.933863 0.005236677 0.0)
(6.8942986 0.00522124 0.0)
(6.852765 0.005378102 0.0)
(6.8092184 0.0055291313 0.0)
(6.765103 0.0056835 0.0)
(6.718784 0.0058409693 0.0)
(6.671027 0.0059498153 0.0)
(6.6210036 0.006185074 0.0)
(6.5679755 0.006807066 0.0)
(6.510861 0.0074725267 0.0)
(6.451172 0.007824447 0.0)
(6.389247 0.008018145 0.0)
(6.3227205 0.008281169 0.0)
(6.254087 0.008739827 0.0)
(6.1824656 0.009297266 0.0)
(6.1080823 0.009912753 0.0)
(6.0302353 0.010644993 0.0)
(5.9471025 0.011484944 0.0)
(5.858874 0.01223119 0.0)
(5.7666073 0.0127840685 0.0)
(5.670903 0.013472932 0.0)
(5.5691104 0.014416193 0.0)
(5.461459 0.015360563 0.0)
(5.3476167 0.016731633 0.0)
(5.223122 0.01792795 0.0)
(5.094888 0.019020686 0.0)
(4.9575515 0.020428834 0.0)
(4.813111 0.022055473 0.0)
(4.656717 0.023654444 0.0)
(4.4904666 0.025480673 0.0)
(4.312536 0.027641274 0.0)
(4.1213346 0.030211067 0.0)
(3.9144819 0.03382745 0.0)
(3.6781151 0.040307023 0.0)
(7.4535418 -0.0028979392 0.0)
(7.446378 -0.0011430092 0.0)
(7.4369698 0.0036200439 0.0)
(7.414112 0.005445474 0.0)
(7.382971 0.005923316 0.0)
(7.3477907 0.0060448493 0.0)
(7.3104568 0.006059446 0.0)
(7.2712736 0.0060887947 0.0)
(7.2295303 0.0063071386 0.0)
(7.1854053 0.006504309 0.0)
(7.140621 0.0066826325 0.0)
(7.093776 0.0069048405 0.0)
(7.044686 0.0070645944 0.0)
(6.9932356 0.007368416 0.0)
(6.9387603 0.008087744 0.0)
(6.880245 0.008843916 0.0)
(6.8192167 0.009263006 0.0)
(6.7555757 0.009557676 0.0)
(6.687105 0.0099115595 0.0)
(6.616051 0.0104611255 0.0)
(6.5419593 0.0110896 0.0)
(6.46523 0.011800618 0.0)
(6.384933 0.01265656 0.0)
(6.299514 0.013653759 0.0)
(6.208933 0.014522992 0.0)
(6.114382 0.015203753 0.0)
(6.012782 0.016068857 0.0)
(5.909047 0.017170373 0.0)
(5.7967057 0.018299436 0.0)
(5.680472 0.019929247 0.0)
(5.5510225 0.021350648 0.0)
(5.4196167 0.02263726 0.0)
(5.2766924 0.024301978 0.0)
(5.1292205 0.026224736 0.0)
(4.9669995 0.028178686 0.0)
(4.7972527 0.030321127 0.0)
(4.613063 0.032889627 0.0)
(4.4155884 0.035954688 0.0)
(4.2022076 0.04018554 0.0)
(3.9587536 0.047737822 0.0)
(7.7389064 -0.0028685965 0.0)
(7.7674356 -0.0011378065 0.0)
(7.7574162 0.003942135 0.0)
(7.7360697 0.0060068998 0.0)
(7.706858 0.006616779 0.0)
(7.6732693 0.0068211122 0.0)
(7.6372676 0.0068869838 0.0)
(7.598654 0.00697646 0.0)
(7.557052 0.0072668954 0.0)
(7.5126624 0.0075196004 0.0)
(7.4673376 0.007714319 0.0)
(7.4202776 0.008014983 0.0)
(7.3703165 0.008238755 0.0)
(7.3179216 0.008610692 0.0)
(7.2624407 0.009430263 0.0)
(7.20296 0.01027911 0.0)
(7.1409454 0.010772774 0.0)
(7.0761647 0.011168904 0.0)
(7.0064692 0.01163208 0.0)
(6.933686 0.012280081 0.0)
(6.857861 0.012980846 0.0)
(6.779139 0.013796729 0.0)
(6.6969 0.01477462 0.0)
(6.609861 0.015928281 0.0)
(6.517548 0.01693879 0.0)
(6.420901 0.017757222 0.0)
(6.318585 0.018789064 0.0)
(6.2097597 0.02008498 0.0)
(6.095189 0.021383705 0.0)
(5.975589 0.02329577 0.0)
(5.8437786 0.024951933 0.0)
(5.708404 0.026449801 0.0)
(5.563025 0.02835916 0.0)
(5.411366 0.030605199 0.0)
(5.24678 0.032912996 0.0)
(5.0713944 0.035442676 0.0)
(4.8837976 0.038425665 0.0)
(4.6802835 0.04203366 0.0)
(4.462349 0.046879333 0.0)
(4.2156253 0.055413567 0.0)
(8.07375 -0.0027457324 0.0)
(8.048678 -0.0010838611 0.0)
(8.037863 0.0042701606 0.0)
(8.017657 0.006547462 0.0)
(7.990036 0.007294893 0.0)
(7.9580493 0.0075823194 0.0)
(7.9234242 0.00771294 0.0)
(7.8855157 0.007872526 0.0)
(7.8443365 0.008248122 0.0)
(7.7999587 0.008572045 0.0)
(7.75418 0.0087768035 0.0)
(7.7071056 0.009162036 0.0)
(7.656773 0.009456776 0.0)
(7.603749 0.009903864 0.0)
(7.547546 0.010829845 0.0)
(7.487513 0.011768 0.0)
(7.4248185 0.01234175 0.0)
(7.359198 0.012843006 0.0)
(7.28892 0.013427885 0.0)
(7.2150097 0.014177333 0.0)
(7.1378365 0.014965917 0.0)
(7.0575705 0.015888289 0.0)
(6.973749 0.016985763 0.0)
(6.8854203 0.018299183 0.0)
(6.7920256 0.01945279 0.0)
(6.6937265 0.020434685 0.0)
(6.589398 0.021664534 0.0)
(6.4781485 0.023151288 0.0)
(6.3613987 0.02461502 0.0)
(6.239399 0.026809542 0.0)
(6.105995 0.028723856 0.0)
(5.9673443 0.030445114 0.0)
(5.8194804 0.03261107 0.0)
(5.665038 0.035185106 0.0)
(5.4974504 0.037887532 0.0)
(5.3194294 0.04080358 0.0)
(5.127638 0.044248674 0.0)
(4.921951 0.048346426 0.0)
(4.6990876 0.053864975 0.0)
(4.449232 0.063447274 0.0)
(8.296018 -0.0025975886 0.0)
(8.297313 -0.0009829475 0.0)
(8.285675 0.0046019624 0.0)
(8.266209 0.0070664026 0.0)
(8.239857 0.007953881 0.0)
(8.209428 0.008323961 0.0)
(8.176178 0.008533509 0.0)
(8.139106 0.008776299 0.0)
(8.098538 0.009247037 0.0)
(8.054441 0.009656081 0.0)
(8.008307 0.009869522 0.0)
(7.9613056 0.010334944 0.0)
(7.9110017 0.010712821 0.0)
(7.8576107 0.011244814 0.0)
(7.800939 0.012273613 0.0)
(7.740634 0.013302323 0.0)
(7.67746 0.013968741 0.0)
(7.611296 0.014567563 0.0)
(7.5408864 0.015280856 0.0)
(7.466215 0.016147783 0.0)
(7.388101 0.01703524 0.0)
(7.306641 0.018064288 0.0)
(7.221486 0.019290451 0.0)
(7.1321406 0.020746872 0.0)
(7.0379815 0.022060012 0.0)
(6.938543 0.023218416 0.0)
(6.8327556 0.024660004 0.0)
(6.7195816 0.026362328 0.0)
(6.6011467 0.02797399 0.0)
(6.4771132 0.030455759 0.0)
(6.3415 0.032667287 0.0)
(6.2014503 0.034616094 0.0)
(6.0506043 0.03704961 0.0)
(5.8949366 0.039941967 0.0)
(5.7251177 0.043050338 0.0)
(5.5449715 0.046375986 0.0)
(5.3504496 0.05029791 0.0)
(5.1408267 0.05497115 0.0)
(4.9158974 0.061128028 0.0)
(4.6637244 0.0717426 0.0)
(8.496634 -0.0024075082 0.0)
(8.517676 -0.0008418754 0.0)
(8.505402 0.0049466314 0.0)
(8.48645 0.0075797583 0.0)
(8.461183 0.008603087 0.0)
(8.432253 0.009051302 0.0)
(8.400194 0.009355594 0.0)
(8.363994 0.009689587 0.0)
(8.324158 0.010259906 0.0)
(8.280585 0.010766668 0.0)
(8.234202 0.0109939715 0.0)
(8.18735 0.011537055 0.0)
(8.137345 0.012005865 0.0)
(8.083794 0.012630747 0.0)
(8.02683 0.013764471 0.0)
(7.9664598 0.014885915 0.0)
(7.902994 0.015652345 0.0)
(7.8365536 0.016339332 0.0)
(7.7662425 0.017196989 0.0)
(7.6911464 0.01818973 0.0)
(7.612381 0.019187648 0.0)
(7.5299554 0.020332158 0.0)
(7.4438057 0.021689095 0.0)
(7.3535857 0.023283428 0.0)
(7.2588778 0.024765344 0.0)
(7.158681 0.026107533 0.0)
(7.051867 0.027787354 0.0)
(6.937489 0.029711278 0.0)
(6.817076 0.03148871 0.0)
(6.6919785 0.034222737 0.0)
(6.5564213 0.03673655 0.0)
(6.413845 0.03895834 0.0)
(6.26194 0.04163599 0.0)
(6.1038046 0.04487584 0.0)
(5.933232 0.048389394 0.0)
(5.7504616 0.052172076 0.0)
(5.5542097 0.056589477 0.0)
(5.342126 0.061833218 0.0)
(5.1149 0.0686575 0.0)
(4.862143 0.080231264 0.0)
(8.734374 -0.0020981897 0.0)
(8.715593 -0.0006676214 0.0)
(8.702964 0.005301408 0.0)
(8.684392 0.008089054 0.0)
(8.660116 0.009241292 0.0)
(8.63248 0.009765941 0.0)
(8.601439 0.010172116 0.0)
(8.566099 0.010603006 0.0)
(8.527118 0.011279983 0.0)
(8.484279 0.0118993195 0.0)
(8.437836 0.01215282 0.0)
(8.391124 0.012759903 0.0)
(8.341546 0.013323249 0.0)
(8.288017 0.014058448 0.0)
(8.230915 0.015298222 0.0)
(8.170583 0.016511394 0.0)
(8.107019 0.017384158 0.0)
(8.040517 0.018156592 0.0)
(7.9704003 0.01916462 0.0)
(7.895156 0.020291233 0.0)
(7.815974 0.02142075 0.0)
(7.7327714 0.022679236 0.0)
(7.64591 0.02417597 0.0)
(7.5549192 0.025903804 0.0)
(7.459806 0.027547227 0.0)
(7.359044 0.02909619 0.0)
(7.2516503 0.031010287 0.0)
(7.1366224 0.033192605 0.0)
(7.014625 0.03513269 0.0)
(6.8887258 0.038104463 0.0)
(6.753162 0.040940676 0.0)
(6.6089993 0.043471932 0.0)
(6.4553113 0.046408445 0.0)
(6.295922 0.049984775 0.0)
(6.123674 0.05394895 0.0)
(5.9400635 0.058172192 0.0)
(5.7419777 0.063116886 0.0)
(5.5290604 0.06890601 0.0)
(5.2996335 0.07643812 0.0)
(5.0459414 0.08902981 0.0)
(8.899705 -0.0018207046 0.0)
(8.894137 -0.00046708083 0.0)
(8.881458 0.005662071 0.0)
(8.863251 0.008592591 0.0)
(8.839901 0.009865729 0.0)
(8.813315 0.010469133 0.0)
(8.7832 0.01098513 0.0)
(8.748676 0.011521036 0.0)
(8.710568 0.01230413 0.0)
(8.66858 0.0130461445 0.0)
(8.622357 0.013344182 0.0)
(8.575719 0.014001755 0.0)
(8.526583 0.0146668395 0.0)
(8.473224 0.015523604 0.0)
(8.4161215 0.016868416 0.0)
(8.355857 0.01817479 0.0)
(8.29237 0.019160552 0.0)
(8.226 0.02001561 0.0)
(8.156066 0.02117391 0.0)
(8.080904 0.022449939 0.0)
(8.001554 0.023726938 0.0)
(7.917716 0.025100436 0.0)
(7.83036 0.026747458 0.0)
(7.7387657 0.028598776 0.0)
(7.643296 0.030413251 0.0)
(7.542108 0.032173797 0.0)
(7.434454 0.034322113 0.0)
(7.3193355 0.036790427 0.0)
(7.196191 0.038899887 0.0)
(7.069636 0.042095903 0.0)
(6.9338937 0.045271944 0.0)
(6.789071 0.048143506 0.0)
(6.634358 0.051325947 0.0)
(6.473457 0.055255946 0.0)
(6.300095 0.05967242 0.0)
(6.115707 0.06435486 0.0)
(5.9164844 0.069839105 0.0)
(5.70208 0.07624596 0.0)
(5.4717674 0.08446062 0.0)
(5.2175174 0.098038405 0.0)
(9.060097 -0.0014959908 0.0)
(9.056024 -0.00024419124 0.0)
(9.043514 0.0060250983 0.0)
(9.0257635 0.00909391 0.0)
(9.003343 0.010483674 0.0)
(8.977552 0.0111690825 0.0)
(8.9483185 0.011798104 0.0)
(8.914525 0.012445985 0.0)
(8.877212 0.013330703 0.0)
(8.836131 0.014200708 0.0)
(8.790429 0.014565851 0.0)
(8.743832 0.015268893 0.0)
(8.695058 0.016036853 0.0)
(8.64196 0.01702389 0.0)
(8.584966 0.018477527 0.0)
(8.524786 0.019879654 0.0)
(8.461527 0.020977113 0.0)
(8.395419 0.021916656 0.0)
(8.325616 0.023233172 0.0)
(8.250704 0.024662143 0.0)
(8.17141 0.026101895 0.0)
(8.087111 0.027599635 0.0)
(7.9994535 0.029400365 0.0)
(7.907416 0.031375792 0.0)
(7.8116765 0.033365384 0.0)
(7.710134 0.035338838 0.0)
(7.602441 0.037721362 0.0)
(7.4877133 0.040491678 0.0)
(7.363862 0.042792615 0.0)
(7.236796 0.04619584 0.0)
(7.1009693 0.049729493 0.0)
(6.955881 0.052964885 0.0)
(6.8000546 0.05642524 0.0)
(6.638201 0.060689818 0.0)
(6.464931 0.06551878 0.0)
(6.2793508 0.07072062 0.0)
(6.0796356 0.07673075 0.0)
(5.8647103 0.08374799 0.0)
(5.6329193 0.092722684 0.0)
(5.378555 0.107236214 0.0)
(9.219355 -0.0011149825 0.0)
(9.203709 -2.7984815e-06 0.0)
(9.191462 0.006388711 0.0)
(9.174265 0.009593388 0.0)
(9.15277 0.011100105 0.0)
(9.127579 0.011869155 0.0)
(9.099211 0.012612245 0.0)
(9.066075 0.0133809205 0.0)
(9.029425 0.014360347 0.0)
(8.989303 0.015357009 0.0)
(8.944397 0.015816566 0.0)
(8.89782 0.016565232 0.0)
(8.849327 0.017434563 0.0)
(8.796516 0.018558927 0.0)
(8.739707 0.020126896 0.0)
(8.679654 0.021626333 0.0)
(8.616742 0.022830633 0.0)
(8.550953 0.023863614 0.0)
(8.481237 0.025344279 0.0)
(8.406659 0.02692576 0.0)
(8.327597 0.028543953 0.0)
(8.243074 0.030175308 0.0)
(8.155284 0.03213176 0.0)
(8.062972 0.034236148 0.0)
(7.967065 0.0364057 0.0)
(7.8652287 0.038596835 0.0)
(7.7576013 0.041203223 0.0)
(7.6436105 0.044282254 0.0)
(7.5195155 0.046807706 0.0)
(7.391998 0.050407644 0.0)
(7.2561693 0.054315403 0.0)
(7.111097 0.057926644 0.0)
(6.954494 0.061695285 0.0)
(6.7918696 0.06628699 0.0)
(6.6183443 0.07158485 0.0)
(6.4324374 0.07729727 0.0)
(6.232306 0.08385496 0.0)
(6.017074 0.09153655 0.0)
(5.7846856 0.101215154 0.0)
(5.530842 0.116537176 0.0)
(9.326232 -0.0008254495 0.0)
(9.339611 0.00025866355 0.0)
(9.327588 0.0067477194 0.0)
(9.310948 0.010083165 0.0)
(9.2903185 0.011709423 0.0)
(9.265637 0.012566449 0.0)
(9.238069 0.013424642 0.0)
(9.205597 0.01432787 0.0)
(9.169524 0.015394461 0.0)
(9.130417 0.016511085 0.0)
(9.086457 0.017086942 0.0)
(9.03998 0.017890634 0.0)
(8.991711 0.018861024 0.0)
(8.939178 0.02013021 0.0)
(8.882564 0.021806045 0.0)
(8.822744 0.02340914 0.0)
(8.760263 0.024719954 0.0)
(8.694785 0.025855893 0.0)
(8.625157 0.027496533 0.0)
(8.550931 0.029240755 0.0)
(8.4722 0.031039663 0.0)
(8.387695 0.03281779 0.0)
(8.299922 0.034938134 0.0)
(8.2075 0.03716662 0.0)
(8.111506 0.03953375 0.0)
(8.009497 0.04194049 0.0)
(7.901893 0.04475596 0.0)
(7.7888303 0.048148815 0.0)
(7.6649694 0.05093311 0.0)
(7.537037 0.054734305 0.0)
(7.4012895 0.059006903 0.0)
(7.2564282 0.06301958 0.0)
(7.09945 0.06711974 0.0)
(6.9362526 0.07203668 0.0)
(6.762733 0.07781243 0.0)
(6.576818 0.0840278 0.0)
(6.376492 0.09118019 0.0)
(6.161146 0.09950274 0.0)
(5.928427 0.10994978 0.0)
(5.6747475 0.12616691 0.0)
(9.4889 -0.00033425947 0.0)
(9.46531 0.00053682004 0.0)
(9.453462 0.0071078804 0.0)
(9.437339 0.010571519 0.0)
(9.41748 0.012321728 0.0)
(9.393252 0.013268255 0.0)
(9.366288 0.014236358 0.0)
(9.334489 0.015279453 0.0)
(9.299018 0.01642974 0.0)
(9.26101 0.017662032 0.0)
(9.218075 0.018378593 0.0)
(9.171821 0.019249437 0.0)
(9.123677 0.020306546 0.0)
(9.071468 0.021738479 0.0)
(9.015055 0.023521427 0.0)
(8.955586 0.025230076 0.0)
(8.89355 0.026638072 0.0)
(8.828398 0.027897947 0.0)
(8.758923 0.029702043 0.0)
(8.684995 0.031596985 0.0)
(8.606669 0.03359348 0.0)
(8.522322 0.03552813 0.0)
(8.434692 0.037810948 0.0)
(8.342296 0.040180206 0.0)
(8.246264 0.042730834 0.0)
(8.144256 0.04538047 0.0)
(8.036637 0.048381373 0.0)
(7.924517 0.052083496 0.0)
(7.8012977 0.055167988 0.0)
(7.673083 0.059175987 0.0)
(7.537483 0.06381758 0.0)
(7.392986 0.06823431 0.0)
(7.236061 0.07269804 0.0)
(7.072504 0.077943325 0.0)
(6.8991103 0.084178016 0.0)
(6.7134137 0.09095163 0.0)
(6.5130854 0.09865897 0.0)
(6.297778 0.10771616 0.0)
(6.0651364 0.11890346 0.0)
(5.8117023 0.13598543 0.0)
(9.599303 2.8679322e-05 0.0)
(9.582291 0.0008329022 0.0)
(9.570596 0.007468846 0.0)
(9.554912 0.011057587 0.0)
(9.53561 0.0129299285 0.0)
(9.51182 0.013973277 0.0)
(9.485276 0.015049167 0.0)
(9.454192 0.016237155 0.0)
(9.419447 0.017468091 0.0)
(9.382515 0.018808426 0.0)
(9.340613 0.01968275 0.0)
(9.294763 0.020637918 0.0)
(9.24666 0.021781947 0.0)
(9.194824 0.02338579 0.0)
(9.138623 0.0252664 0.0)
(9.07964 0.027083077 0.0)
(9.018069 0.02859134 0.0)
(8.953235 0.029987222 0.0)
(8.883994 0.031948168 0.0)
(8.810346 0.034006 0.0)
(8.732426 0.03619822 0.0)
(8.648317 0.038299017 0.0)
(8.560922 0.0407514 0.0)
(8.468676 0.04326988 0.0)
(8.372609 0.046010703 0.0)
(8.27078 0.048907652 0.0)
(8.163184 0.05208389 0.0)
(8.051877 0.0560798 0.0)
(7.9295735 0.0594949 0.0)
(7.8012786 0.06373575 0.0)
(7.6658797 0.06872589 0.0)
(7.521891 0.07356299 0.0)
(7.3654633 0.07841251 0.0)
(7.2017775 0.08400139 0.0)
(7.0284815 0.09069519 0.0)
(6.843098 0.098040424 0.0)
(6.6429553 0.10633158 0.0)
(6.4279284 0.11609419 0.0)
(6.1957498 0.12807748 0.0)
(5.9426637 0.14600658 0.0)
(9.711343 0.00041165564 0.0)
(9.691471 0.0011425263 0.0)
(9.680008 0.0078312475 0.0)
(9.664731 0.011544707 0.0)
(9.645749 0.013541762 0.0)
(9.622355 0.014689313 0.0)
(9.596088 0.015871566 0.0)
(9.565741 0.017196912 0.0)
(9.531828 0.018507699 0.0)
(9.495855 0.019950613 0.0)
(9.45502 0.020994015 0.0)
(9.409722 0.022059748 0.0)
(9.361571 0.023291491 0.0)
(9.310151 0.025067948 0.0)
(9.254264 0.027040478 0.0)
(9.19589 0.028970663 0.0)
(9.1347685 0.030582897 0.0)
(9.070236 0.03212159 0.0)
(9.001369 0.034247637 0.0)
(8.927959 0.036470663 0.0)
(8.850391 0.03885341 0.0)
(8.7666235 0.041137617 0.0)
(8.679548 0.04375611 0.0)
(8.58759 0.04643864 0.0)
(8.491451 0.049375813 0.0)
(8.389907 0.05251661 0.0)
(8.282469 0.055875752 0.0)
(8.171771 0.06013792 0.0)
(8.050508 0.063922025 0.0)
(7.9223356 0.06841416 0.0)
(7.7872276 0.07375678 0.0)
(7.64388 0.078999124 0.0)
(7.488304 0.08427269 0.0)
(7.3247786 0.090213545 0.0)
(7.151512 0.09738574 0.0)
(6.966452 0.105293065 0.0)
(6.766682 0.11419681 0.0)
(6.5522156 0.12468996 0.0)
(6.320891 0.13746509 0.0)
(6.068276 0.15628558 0.0)
(9.8249 0.00080115715 0.0)
(9.793716 0.001457648 0.0)
(9.782668 0.008193284 0.0)
(9.76786 0.012034016 0.0)
(9.749043 0.014156437 0.0)
(9.725929 0.015417523 0.0)
(9.699855 0.016704457 0.0)
(9.670243 0.018156217 0.0)
(9.637171 0.01954917 0.0)
(9.601975 0.021090264 0.0)
(9.562267 0.022307439 0.0)
(9.517618 0.02351451 0.0)
(9.469372 0.024839066 0.0)
(9.418378 0.026777027 0.0)
(9.363007 0.028842438 0.0)
(9.305312 0.030889655 0.0)
(9.244614 0.032616235 0.0)
(9.180339 0.03429726 0.0)
(9.111987 0.03659471 0.0)
(9.0387945 0.038993903 0.0)
(8.961503 0.04155768 0.0)
(8.878235 0.044041753 0.0)
(8.791555 0.04682009 0.0)
(8.700053 0.049683593 0.0)
(8.6038065 0.05282695 0.0)
(8.502571 0.0562015 0.0)
(8.395418 0.059759635 0.0)
(8.285111 0.064262606 0.0)
(8.164904 0.06844604 0.0)
(8.03705 0.073208936 0.0)
(7.9023232 0.07890294 0.0)
(7.759731 0.08453801 0.0)
(7.6052585 0.09027098 0.0)
(7.4421606 0.09657827 0.0)
(7.268937 0.10425483 0.0)
(7.0842266 0.112706855 0.0)
(6.8850007 0.12225083 0.0)
(6.6712904 0.13345411 0.0)
(6.4411736 0.14705652 0.0)
(6.189176 0.16682757 0.0)
(9.882182 0.0009929865 0.0)
(9.889992 0.001770133 0.0)
(9.879577 0.008551384 0.0)
(9.865352 0.012523123 0.0)
(9.846727 0.0147806555 0.0)
(9.8237295 0.016155804 0.0)
(9.797754 0.017539058 0.0)
(9.768825 0.019111117 0.0)
(9.736554 0.020596918 0.0)
(9.70196 0.022231314 0.0)
(9.663384 0.023620421 0.0)
(9.61943 0.024987279 0.0)
(9.571172 0.026423424 0.0)
(9.520585 0.02850769 0.0)
(9.46594 0.0306712 0.0)
(9.408874 0.032827616 0.0)
(9.348672 0.034692176 0.0)
(9.284613 0.036513265 0.0)
(9.216814 0.038975876 0.0)
(9.143908 0.04157475 0.0)
(9.066858 0.044311415 0.0)
(8.984222 0.04699453 0.0)
(8.898003 0.049941752 0.0)
(8.807092 0.053002674 0.0)
(8.710785 0.056355644 0.0)
(8.609863 0.059962343 0.0)
(8.503065 0.06372457 0.0)
(8.392937 0.068464786 0.0)
(8.273622 0.07302221 0.0)
(8.14641 0.078118406 0.0)
(8.01206 0.08412197 0.0)
(7.8703885 0.09018098 0.0)
(7.716992 0.09634706 0.0)
(7.554653 0.10309403 0.0)
(7.3815823 0.1112557 0.0)
(7.197317 0.12028213 0.0)
(6.998773 0.13047466 0.0)
(6.785901 0.1423666 0.0)
(6.5572667 0.1568507 0.0)
(6.3060718 0.17751585 0.0)
(9.99772 0.0013607662 0.0)
(9.980572 0.002073666 0.0)
(9.970972 0.0089050615 0.0)
(9.957457 0.013016691 0.0)
(9.939096 0.015430182 0.0)
(9.916113 0.016919572 0.0)
(9.890211 0.018388819 0.0)
(9.861861 0.02006416 0.0)
(9.830235 0.021650117 0.0)
(9.796131 0.023377229 0.0)
(9.758679 0.02494771 0.0)
(9.715397 0.026495827 0.0)
(9.667275 0.02804758 0.0)
(9.61706 0.030251209 0.0)
(9.5633745 0.032529324 0.0)
(9.506906 0.034801435 0.0)
(9.447173 0.036805067 0.0)
(9.383348 0.03877349 0.0)
(9.316112 0.041416507 0.0)
(9.243542 0.044208746 0.0)
(9.166801 0.047120266 0.0)
(9.08492 0.05001622 0.0)
(8.999106 0.053108886 0.0)
(8.908899 0.056418393 0.0)
(8.812666 0.059971005 0.0)
(8.712127 0.06381153 0.0)
(8.605629 0.06779511 0.0)
(8.495543 0.072754025 0.0)
(8.377082 0.07771144 0.0)
(8.250637 0.08313234 0.0)
(8.116868 0.08947647 0.0)
(7.976068 0.095923305 0.0)
(7.8237877 0.1025719 0.0)
(7.662255 0.10976647 0.0)
(7.4895244 0.118439935 0.0)
(7.305907 0.12806098 0.0)
(7.108106 0.1388475 0.0)
(6.8962765 0.15153143 0.0)
(6.6690874 0.16682051 0.0)
(6.419037 0.18849209 0.0)
(10.056058 0.001533654 0.0)
(10.066463 0.002365431 0.0)
(10.057666 0.009240747 0.0)
(10.044894 0.013492422 0.0)
(10.026958 0.016077824 0.0)
(10.003993 0.017698653 0.0)
(9.978156 0.019249076 0.0)
(9.950333 0.021026084 0.0)
(9.919199 0.02272121 0.0)
(9.885499 0.024529407 0.0)
(9.8488455 0.026257956 0.0)
(9.806359 0.028018301 0.0)
(9.758652 0.029708989 0.0)