/*--------------------------------*- C++ -*----------------------------------*\
| =========                 |                                                 |
| \\      /  F ield         | OpenFOAM: The Open Source CFD Toolbox           |
|  \\    /   O peration     | Version:  2506                                  |
|   \\  /    A nd           | Website:  www.openfoam.com                      |
|    \\/     M anipulation  |                                                 |
\*---------------------------------------------------------------------------*/
FoamFile
{
    version     2.0;
    format      ascii;
    arch        "LSB;label=32;scalar=64";
    class       volScalarField;
    location    "6000";
    object      nut;
}
// * * * * * * * * * * * * * * * * * * * * * * * * * * * * * * * * * * * * * //

dimensions      [0 2 -1 0 0 0 0];

internalField   nonuniform List<scalar> 
72100
(
1.37098e-09
1.35841e-09
1.34135e-09
1.32331e-09
1.30164e-09
1.27807e-09
1.25266e-09
1.2257e-09
1.19734e-09
1.16765e-09
1.1367e-09
1.10454e-09
1.07119e-09
1.03665e-09
1.00096e-09
9.64121e-10
9.26147e-10
8.87046e-10
8.46853e-10
8.05535e-10
7.63087e-10
7.19624e-10
6.75244e-10
6.30044e-10
5.84053e-10
5.374e-10
4.90208e-10
4.42777e-10
3.95213e-10
3.48084e-10
3.01393e-10
2.56275e-10
2.12233e-10
1.71626e-10
1.32508e-10
9.97638e-11
6.80308e-11
4.67955e-11
2.45577e-11
1.63616e-11
7.11311e-09
7.08864e-09
7.06343e-09
7.023e-09
6.97113e-09
6.91138e-09
6.84432e-09
6.77078e-09
6.69104e-09
6.60525e-09
6.51345e-09
6.41567e-09
6.31187e-09
6.20202e-09
6.0861e-09
5.96405e-09
5.83583e-09
5.70141e-09
5.56059e-09
5.41243e-09
5.25674e-09
5.09415e-09
4.92492e-09
4.74897e-09
4.56533e-09
4.3742e-09
4.17592e-09
3.97038e-09
3.75776e-09
3.53877e-09
3.3137e-09
3.08383e-09
2.84967e-09
2.61346e-09
2.3755e-09
2.13925e-09
1.90542e-09
1.67714e-09
1.45995e-09
1.24915e-09
1.25864e-07
1.25937e-07
1.2573e-07
1.25218e-07
1.24533e-07
1.23721e-07
1.2279e-07
1.21753e-07
1.20612e-07
1.19369e-07
1.18022e-07
1.16572e-07
1.15017e-07
1.13355e-07
1.11586e-07
1.09707e-07
1.07718e-07
1.05617e-07
1.03399e-07
1.01044e-07
9.85485e-08
9.59225e-08
9.317e-08
9.02859e-08
8.725e-08
8.40622e-08
8.07275e-08
7.72378e-08
7.35939e-08
6.98e-08
6.58616e-08
6.1785e-08
5.75897e-08
5.32799e-08
4.88981e-08
4.44263e-08
3.99841e-08
3.54555e-08
3.11867e-08
2.67799e-08
8.98756e-07
9.01376e-07
9.00389e-07
8.97273e-07
8.93067e-07
8.88061e-07
8.82308e-07
8.75869e-07
8.68757e-07
8.60966e-07
8.52491e-07
8.43318e-07
8.33427e-07
8.22808e-07
8.11443e-07
7.99315e-07
7.86407e-07
7.727e-07
7.58155e-07
7.42618e-07
7.26047e-07
7.08515e-07
6.90031e-07
6.7055e-07
6.49902e-07
6.28081e-07
6.05099e-07
5.80878e-07
5.55409e-07
5.28687e-07
5.00741e-07
4.71572e-07
4.41328e-07
4.0996e-07
3.7784e-07
3.44687e-07
3.11573e-07
2.77313e-07
2.45004e-07
2.10953e-07
3.39067e-06
3.40338e-06
3.40141e-06
3.3924e-06
3.38013e-06
3.3656e-06
3.34888e-06
3.33014e-06
3.30936e-06
3.2865e-06
3.26146e-06
3.23416e-06
3.20452e-06
3.17246e-06
3.13786e-06
3.10064e-06
3.0607e-06
3.01793e-06
2.97216e-06
2.92272e-06
2.86947e-06
2.81257e-06
2.75202e-06
2.68754e-06
2.61841e-06
2.54451e-06
2.46577e-06
2.38172e-06
2.29222e-06
2.19706e-06
2.09615e-06
1.98926e-06
1.87678e-06
1.75813e-06
1.6348e-06
1.50486e-06
1.37331e-06
1.23356e-06
1.10081e-06
9.55605e-07
8.31582e-06
8.34144e-06
8.33838e-06
8.32206e-06
8.30009e-06
8.27463e-06
8.24564e-06
8.21343e-06
8.17779e-06
8.13851e-06
8.09534e-06
8.04798e-06
7.99617e-06
7.93964e-06
7.87809e-06
7.8113e-06
7.73896e-06
7.66074e-06
7.57617e-06
7.48357e-06
7.38241e-06
7.27318e-06
7.15559e-06
7.02891e-06
6.89105e-06
6.74166e-06
6.58028e-06
6.4054e-06
6.21627e-06
6.01184e-06
5.79147e-06
5.55366e-06
5.29884e-06
5.02413e-06
4.73286e-06
4.41756e-06
4.09196e-06
3.73318e-06
3.38753e-06
2.98861e-06
1.54646e-05
1.54929e-05
1.5485e-05
1.54602e-05
1.54287e-05
1.5394e-05
1.53554e-05
1.53137e-05
1.52684e-05
1.5219e-05
1.51648e-05
1.51054e-05
1.50401e-05
1.49685e-05
1.489e-05
1.48042e-05
1.47104e-05
1.46081e-05
1.44963e-05
1.4372e-05
1.42341e-05
1.40835e-05
1.39197e-05
1.37412e-05
1.35442e-05
1.33278e-05
1.30912e-05
1.28311e-05
1.2546e-05
1.22334e-05
1.18914e-05
1.15166e-05
1.11088e-05
1.06607e-05
1.01775e-05
9.64141e-06
9.07779e-06
8.43423e-06
7.80578e-06
7.0376e-06
2.42832e-05
2.42906e-05
2.42596e-05
2.42246e-05
2.41889e-05
2.41521e-05
2.41046e-05
2.40557e-05
2.40045e-05
2.39503e-05
2.38921e-05
2.38289e-05
2.37598e-05
2.3684e-05
2.36007e-05
2.35091e-05
2.34084e-05
2.32976e-05
2.31756e-05
2.30366e-05
2.28794e-05
2.27059e-05
2.25153e-05
2.23056e-05
2.20704e-05
2.18088e-05
2.15194e-05
2.11974e-05
2.08404e-05
2.04445e-05
2.00068e-05
1.95216e-05
1.89881e-05
1.83947e-05
1.77477e-05
1.70181e-05
1.6243e-05
1.53353e-05
1.44438e-05
1.33024e-05
3.38997e-05
3.38581e-05
3.3796e-05
3.37336e-05
3.36737e-05
3.36203e-05
3.35722e-05
3.35303e-05
3.34929e-05
3.34591e-05
3.34279e-05
3.33972e-05
3.33653e-05
3.33313e-05
3.32941e-05
3.32526e-05
3.32058e-05
3.3153e-05
3.30933e-05
3.29788e-05
3.2816e-05
3.26343e-05
3.24329e-05
3.22091e-05
3.19525e-05
3.16634e-05
3.13401e-05
3.09754e-05
3.05668e-05
3.01094e-05
2.95993e-05
2.90292e-05
2.8398e-05
2.76905e-05
2.69146e-05
2.60317e-05
2.50899e-05
2.39714e-05
2.28742e-05
2.14281e-05
4.46357e-05
4.45642e-05
4.44653e-05
4.43635e-05
4.42656e-05
4.41777e-05
4.41019e-05
4.40387e-05
4.39842e-05
4.39392e-05
4.39003e-05
4.38655e-05
4.38326e-05
4.38011e-05
4.37681e-05
4.37326e-05
4.36932e-05
4.36486e-05
4.3597e-05
4.35294e-05
4.34426e-05
4.3339e-05
4.32186e-05
4.30804e-05
4.28317e-05
4.25264e-05
4.21806e-05
4.17844e-05
4.13358e-05
4.08288e-05
4.02589e-05
3.96176e-05
3.89042e-05
3.81005e-05
3.7216e-05
3.62053e-05
3.5126e-05
3.38373e-05
3.25783e-05
3.08966e-05
5.65002e-05
5.64029e-05
5.62626e-05
5.61122e-05
5.59631e-05
5.58254e-05
5.57041e-05
5.55986e-05
5.55102e-05
5.5434e-05
5.53677e-05
5.53103e-05
5.52595e-05
5.52116e-05
5.51651e-05
5.51179e-05
5.50667e-05
5.50124e-05
5.49495e-05
5.48809e-05
5.48022e-05
5.47046e-05
5.45906e-05
5.44566e-05
5.42866e-05
5.40762e-05
5.37992e-05
5.33765e-05
5.28926e-05
5.23402e-05
5.17143e-05
5.10058e-05
5.02143e-05
4.93195e-05
4.83326e-05
4.72032e-05
4.59968e-05
4.45566e-05
4.31545e-05
4.12795e-05
6.94266e-05
6.93058e-05
6.91223e-05
6.89157e-05
6.87039e-05
6.8501e-05
6.83166e-05
6.81522e-05
6.80104e-05
6.78855e-05
6.77744e-05
6.76767e-05
6.75896e-05
6.75104e-05
6.74337e-05
6.73592e-05
6.72837e-05
6.72044e-05
6.71188e-05
6.70282e-05
6.69282e-05
6.68094e-05
6.66723e-05
6.65121e-05
6.63315e-05
6.61185e-05
6.58588e-05
6.55364e-05
6.50703e-05
6.44717e-05
6.37878e-05
6.30098e-05
6.21371e-05
6.11481e-05
6.00551e-05
5.88045e-05
5.74679e-05
5.58785e-05
5.43322e-05
5.22811e-05
8.3342e-05
8.32036e-05
8.29775e-05
8.27103e-05
8.24275e-05
8.2148e-05
8.18835e-05
8.16457e-05
8.14296e-05
8.12355e-05
8.106e-05
8.09036e-05
8.07613e-05
8.06292e-05
8.0507e-05
8.03882e-05
8.0273e-05
8.01517e-05
8.0028e-05
7.98972e-05
7.97566e-05
7.96011e-05
7.94226e-05
7.92174e-05
7.89899e-05
7.87304e-05
7.84246e-05
7.80776e-05
7.76514e-05
7.71083e-05
7.63609e-05
7.55068e-05
7.45454e-05
7.34542e-05
7.22455e-05
7.08644e-05
6.93862e-05
6.76393e-05
6.59353e-05
6.37081e-05
9.81501e-05
9.79967e-05
9.77305e-05
9.74084e-05
9.7053e-05
9.66946e-05
9.63476e-05
9.60219e-05
9.57167e-05
9.54339e-05
9.51725e-05
9.49379e-05
9.47226e-05
9.45179e-05
9.43277e-05
9.4146e-05
9.39652e-05
9.3788e-05
9.36067e-05
9.34181e-05
9.32203e-05
9.30085e-05
9.27736e-05
9.25078e-05
9.22117e-05
9.18781e-05
9.1497e-05
9.10701e-05
9.05808e-05
9.00108e-05
8.93195e-05
8.84131e-05
8.73526e-05
8.61479e-05
8.48102e-05
8.32854e-05
8.16491e-05
7.9731e-05
7.78475e-05
7.54348e-05
0.000113631
0.000113453
0.000113171
0.000112817
0.000112419
0.00011201
0.000111606
0.000111201
0.000110803
0.000110425
0.00011007
0.000109742
0.000109427
0.000109132
0.000108852
0.00010858
0.000108319
0.000108062
0.000107803
0.000107541
0.000107264
0.000106976
0.000106662
0.000106317
0.000105935
0.00010551
0.000105033
0.000104497
0.000103895
0.000103219
0.000102443
0.000101529
0.000100451
9.91662e-05
9.76837e-05
9.6e-05
9.41852e-05
9.208e-05
8.99893e-05
8.73781e-05
0.000129208
0.000129004
0.000128741
0.000128438
0.000128109
0.000127771
0.000127436
0.000127003
0.000126547
0.0001261
0.000125676
0.000125247
0.000124829
0.000124423
0.000124037
0.000123659
0.000123295
0.000122935
0.000122577
0.000122215
0.000121845
0.000121461
0.000121051
0.000120605
0.000120122
0.000119585
0.00011899
0.000118328
0.000117585
0.000116759
0.000115831
0.000114787
0.000113572
0.000112195
0.000110582
0.000108842
0.00010678
0.000104633
0.0001022
9.94803e-05
0.000145384
0.000145157
0.00014486
0.000144513
0.000144135
0.000143742
0.000143346
0.000142956
0.000142574
0.000142203
0.00014182
0.000141322
0.000140832
0.000140344
0.000139845
0.000139352
0.000138861
0.000138377
0.000137902
0.000137417
0.00013693
0.000136429
0.000135908
0.000135347
0.000134738
0.000134076
0.000133341
0.000132531
0.000131633
0.000130633
0.000129516
0.000128282
0.000126865
0.000125288
0.000123453
0.000121492
0.00011914
0.000116859
0.000113921
0.000111646
0.000162142
0.000161895
0.000161566
0.000161178
0.00016075
0.0001603
0.000159841
0.000159385
0.000158934
0.00015849
0.000158058
0.000157634
0.000157219
0.000156761
0.000156192
0.000155606
0.000154996
0.000154374
0.00015375
0.000153135
0.000152512
0.000151876
0.000151216
0.00015052
0.000149768
0.000148957
0.000148068
0.00014709
0.000146014
0.000144825
0.000143502
0.000142037
0.000140388
0.000138564
0.000136458
0.000134204
0.000131527
0.000128915
0.000125555
0.000123004
0.000179473
0.000179206
0.000178846
0.000178418
0.000177941
0.000177435
0.000176913
0.000176386
0.000175861
0.000175342
0.00017483
0.000174327
0.000173831
0.000173338
0.000172849
0.00017232
0.000171637
0.000170893
0.000170121
0.000169351
0.000168577
0.000167788
0.000166972
0.000166115
0.000165207
0.000164224
0.000163166
0.000162006
0.000160731
0.000159327
0.000157776
0.000156073
0.00015416
0.000152054
0.000149657
0.000147075
0.000144045
0.000141036
0.00013726
0.00013421
0.000197364
0.000197084
0.000196694
0.000196227
0.000195702
0.000195138
0.000194552
0.000193954
0.000193353
0.000192755
0.00019216
0.00019157
0.000190986
0.000190405
0.000189825
0.000189245
0.000188657
0.00018789
0.000186992
0.000186059
0.000185117
0.000184165
0.000183177
0.000182142
0.000181055
0.000179888
0.000178632
0.000177272
0.000175786
0.000174154
0.000172355
0.000170389
0.000168193
0.000165788
0.00016307
0.000160138
0.00015674
0.000153307
0.000149105
0.000145489
0.000215813
0.000215519
0.000215103
0.000214598
0.000214025
0.000213405
0.000212755
0.000212085
0.000211407
0.000210724
0.000210042
0.000209361
0.000208684
0.000208009
0.000207332
0.000206651
0.000205962
0.000205266
0.000204336
0.000203246
0.000202141
0.000201007
0.000199832
0.000198611
0.000197317
0.000195953
0.000194484
0.000192895
0.000191176
0.000189307
0.00018725
0.000184995
0.000182505
0.000179786
0.000176722
0.000173426
0.00016964
0.000165774
0.000161127
0.000156931
0.000234817
0.000234509
0.000234068
0.000233527
0.000232909
0.000232234
0.000231519
0.000230776
0.000230019
0.000229251
0.000228479
0.000227704
0.000226928
0.00022615
0.000225369
0.000224583
0.000223786
0.000222977
0.000222115
0.000220901
0.00021964
0.000218319
0.000216951
0.000215523
0.000214018
0.000212428
0.000210731
0.000208904
0.00020693
0.000204792
0.000202462
0.000199913
0.000197103
0.000194044
0.000190627
0.000186953
0.000182758
0.000178447
0.000173332
0.000168576
0.000254371
0.000254052
0.000253586
0.000253012
0.000252349
0.000251619
0.000250841
0.000250027
0.00024919
0.000248336
0.000247471
0.000246599
0.00024572
0.000244836
0.000243946
0.000243044
0.000242133
0.000241205
0.000240256
0.000239047
0.000237618
0.000236107
0.00023454
0.000232892
0.000231166
0.000229335
0.000227385
0.000225309
0.000223067
0.000220643
0.000218008
0.000215146
0.000212002
0.000208587
0.000204797
0.000200725
0.000196113
0.000191344
0.000185745
0.000180438
0.000274476
0.000274145
0.000273659
0.000273053
0.000272346
0.000271564
0.000270723
0.000269839
0.000268921
0.000267979
0.00026702
0.000266046
0.000265063
0.000264068
0.000263062
0.000262044
0.00026101
0.000259956
0.000258875
0.000257669
0.000256072
0.000254381
0.000252595
0.000250734
0.000248772
0.000246689
0.000244483
0.000242122
0.000239586
0.000236865
0.00023391
0.000230718
0.00022723
0.000223445
0.000219258
0.000214768
0.000209712
0.000204475
0.000198377
0.000192514
0.000295131
0.00029479
0.000294285
0.000293647
0.000292901
0.000292066
0.000291165
0.000290208
0.000289212
0.000288183
0.000287128
0.000286052
0.000284961
0.000283853
0.000282728
0.000281585
0.000280423
0.000279236
0.00027802
0.00027677
0.000275015
0.000273144
0.00027115
0.00026906
0.000266843
0.000264508
0.000262021
0.000259371
0.000256531
0.000253489
0.000250207
0.000246657
0.000242789
0.000238616
0.000234016
0.000229102
0.000223573
0.000217857
0.00021124
0.000204828
0.000316337
0.000315988
0.000315464
0.000314798
0.00031401
0.000313126
0.000312165
0.000311141
0.000310064
0.000308949
0.000307797
0.000306621
0.000305418
0.000304193
0.000302947
0.000301676
0.00030038
0.000299055
0.000297698
0.000296299
0.000294459
0.000292403
0.000290205
0.000287878
0.000285412
0.000282793
0.000280027
0.000277067
0.000273917
0.000270534
0.000266895
0.000262971
0.000258714
0.000254131
0.000249104
0.00024373
0.000237726
0.000231517
0.000224355
0.00021739
0.000338098
0.00033774
0.0003372
0.000336506
0.000335681
0.000334749
0.000333729
0.000332636
0.000331481
0.000330278
0.000329034
0.000327751
0.000326439
0.000325096
0.000323723
0.000322323
0.000320891
0.000319422
0.000317916
0.000316363
0.000314439
0.000312186
0.000309775
0.000307206
0.000304482
0.000301581
0.000298519
0.000295236
0.000291744
0.000288007
0.000283994
0.000279696
0.000275034
0.000270024
0.000264533
0.000258689
0.000252196
0.000245463
0.000237745
0.000230217
0.000360416
0.00036005
0.000359493
0.000358771
0.00035791
0.000356932
0.000355855
0.000354696
0.000353468
0.000352177
0.000350837
0.000349454
0.000348026
0.000346565
0.000345066
0.00034353
0.000341958
0.000340344
0.000338684
0.000336971
0.000334956
0.000332506
0.000329873
0.000327063
0.000324063
0.000320884
0.000317502
0.000313908
0.000310063
0.000305963
0.000301558
0.000296851
0.000291752
0.000286303
0.000280332
0.000273997
0.000266978
0.00025972
0.000251428
0.00024332
0.00038329
0.00038292
0.000382347
0.000381599
0.000380704
0.000379681
0.00037855
0.000377327
0.000376021
0.000374648
0.000373213
0.000371726
0.00037019
0.000368606
0.00036698
0.000365308
0.000363592
0.000361829
0.000360012
0.000358135
0.00035604
0.000353361
0.000350505
0.000347441
0.00034417
0.000340711
0.000336998
0.000333073
0.000328875
0.000324406
0.000319599
0.000314453
0.000308916
0.000302986
0.000296529
0.000289685
0.000282112
0.000274306
0.000265403
0.000256715
0.000406728
0.000406352
0.000405764
0.000404995
0.000404065
0.000402998
0.000401814
0.000400528
0.000399151
0.000397692
0.000396165
0.000394577
0.000392927
0.000391227
0.00038947
0.000387664
0.000385802
0.000383884
0.000381906
0.000379864
0.000377694
0.000374801
0.000371683
0.000368367
0.000364811
0.000361061
0.000357031
0.000352751
0.000348192
0.000343328
0.000338105
0.000332539
0.000326522
0.000320106
0.000313143
0.000305767
0.000297631
0.000289245
0.000279727
0.000270437
0.000430733
0.000430351
0.000429746
0.000428956
0.000427995
0.000426886
0.000425653
0.000424303
0.000422853
0.000421317
0.000419697
0.000418007
0.000416247
0.000414427
0.000412542
0.000410596
0.000408589
0.000406518
0.00040438
0.000402163
0.000399868
0.00039678
0.000393418
0.000389842
0.000386033
0.000381949
0.000377606
0.00037297
0.000368045
0.000362759
0.000357109
0.000351093
0.0003446
0.000337684
0.000330189
0.000322256
0.000313542
0.000304565
0.000294407
0.000284501
0.000455305
0.00045492
0.000454303
0.000453489
0.000452498
0.000451349
0.000450064
0.000448655
0.000447136
0.00044552
0.000443812
0.000442022
0.000440154
0.000438214
0.0004362
0.000434118
0.000431964
0.000429738
0.000427435
0.000425047
0.000422566
0.000419317
0.000415736
0.000411885
0.000407788
0.000403398
0.000398735
0.000393747
0.000388427
0.000382729
0.000376653
0.000370142
0.000363175
0.000355735
0.00034768
0.000339189
0.000329862
0.000320276
0.000309456
0.000298911
0.000480447
0.000480058
0.000479429
0.000478598
0.000477577
0.000476389
0.000475055
0.00047359
0.000472005
0.000470306
0.000468511
0.000466626
0.00046465
0.000462591
0.000460452
0.000458232
0.000455932
0.000453551
0.000451078
0.000448518
0.000445856
0.000442465
0.000438631
0.000434512
0.000430125
0.000425428
0.000420424
0.000415079
0.000409342
0.000403253
0.000396717
0.000389746
0.000382245
0.000374281
0.000365667
0.000356588
0.000346629
0.000336408
0.000324906
0.000313713
0.000506169
0.000505776
0.000505135
0.000504284
0.000503236
0.000502011
0.000500628
0.00049911
0.000497458
0.000495684
0.000493805
0.000491821
0.000489738
0.000487563
0.000485301
0.000482943
0.000480497
0.00047796
0.000475323
0.000472586
0.000469738
0.000466197
0.0004621
0.000457716
0.000453028
0.000448029
0.00044266
0.000436953
0.000430833
0.000424321
0.000417321
0.000409879
0.000401843
0.000393321
0.000384137
0.000374444
0.000363848
0.000352981
0.000340768
0.000328918
0.000532472
0.000532073
0.000531421
0.000530551
0.000529475
0.000528217
0.00052679
0.000525212
0.0005235
0.000521651
0.000519692
0.000517611
0.000515428
0.000513138
0.000510747
0.000508257
0.000505669
0.000502973
0.000500174
0.000497258
0.000494224
0.000490514
0.000486167
0.000481514
0.000476527
0.000471212
0.000465502
0.000459406
0.000452899
0.000445937
0.000438484
0.000430507
0.000421994
0.000412904
0.000403096
0.000392782
0.000381526
0.000370012
0.000357063
0.000344533
0.000559356
0.000558951
0.000558292
0.000557404
0.000556305
0.000555012
0.000553541
0.000551911
0.000550133
0.000548216
0.000546171
0.000544001
0.000541716
0.000539318
0.000536804
0.000534181
0.000531445
0.000528596
0.000525632
0.000522541
0.00051932
0.000515459
0.000510849
0.000505911
0.000500645
0.000494971
0.000488928
0.00048245
0.000475533
0.000468113
0.000460197
0.000451733
0.000442666
0.000433002
0.000422576
0.000411645
0.000399704
0.000387512
0.000373819
0.000360594
0.00058682
0.000586418
0.00058575
0.000584847
0.000583722
0.000582396
0.000580885
0.000579206
0.000577363
0.000575379
0.000573252
0.000570992
0.000568611
0.000566098
0.000563469
0.000560711
0.000557837
0.000554835
0.000551707
0.00054844
0.000545032
0.000541019
0.000536144
0.000530912
0.000525327
0.000519335
0.000512945
0.000506065
0.000498741
0.000490883
0.000482479
0.000473518
0.000463858
0.000453624
0.000442594
0.000431013
0.000418369
0.000405478
0.000391038
0.000377122
0.00061488
0.000614476
0.000613799
0.000612877
0.00061173
0.000610373
0.000608827
0.000607095
0.000605196
0.000603143
0.000600938
0.000598589
0.000596112
0.000593493
0.000590744
0.000587859
0.000584843
0.00058169
0.0005784
0.000574962
0.000571368
0.000567175
0.000562019
0.000556516
0.000550603
0.000544312
0.000537533
0.000530287
0.000522516
0.000514225
0.000505306
0.000495823
0.000485625
0.000474805
0.000463128
0.000450912
0.000437567
0.000423968
0.000408738
0.000394112
0.00064353
0.000643125
0.000642439
0.0006415
0.000640333
0.000638946
0.000637362
0.000635583
0.000633633
0.000631508
0.000629229
0.000626795
0.00062422
0.000621499
0.000618632
0.000615623
0.000612472
0.000609173
0.000605721
0.00060211
0.000598335
0.000593953
0.000588514
0.000582736
0.000576511
0.000569854
0.000562704
0.000555081
0.000546868
0.0005381
0.00052872
0.000518686
0.000507926
0.000496512
0.000484192
0.000471305
0.000457252
0.000442953
0.00042694
0.000411576
0.000672776
0.000672369
0.000671679
0.000670725
0.000669535
0.00066812
0.000666497
0.00066467
0.000662666
0.000660483
0.000658131
0.000655614
0.000652943
0.000650118
0.000647141
0.000644009
0.000640724
0.000637279
0.000633671
0.000629894
0.000625932
0.000621367
0.000615642
0.000609548
0.000603008
0.000595968
0.00058847
0.000580431
0.00057179
0.000562588
0.000552696
0.000542118
0.000530788
0.000518771
0.000505826
0.000492243
0.000477444
0.000462433
0.000445627
0.000429564
0.000702616
0.000702208
0.000701509
0.000700552
0.000699338
0.000697893
0.000696233
0.000694367
0.000692311
0.000690066
0.000687637
0.000685048
0.000682285
0.000679358
0.000676267
0.000673017
0.000669603
0.000666013
0.00066225
0.000658307
0.000654167
0.00064941
0.000643386
0.000636964
0.000630109
0.000622746
0.000614854
0.000606387
0.000597307
0.000587625
0.000577207
0.000566114
0.000554225
0.000541582
0.000527954
0.000513714
0.000498205
0.000482462
0.000464825
0.000448034
0.000733054
0.000732645
0.000731945
0.000730972
0.000729741
0.000728272
0.000726573
0.000724667
0.000722558
0.000720253
0.000717762
0.000715092
0.000712238
0.000709216
0.000706021
0.000702649
0.000699107
0.00069538
0.000691462
0.000687359
0.000683036
0.000678134
0.000671649
0.000665017
0.000657802
0.000650116
0.000641825
0.000632914
0.000623414
0.000613207
0.000602311
0.00059069
0.00057816
0.000564891
0.000550605
0.00053568
0.000519436
0.000502968
0.000484538
0.000467001
0.000764093
0.000763689
0.000762979
0.000761994
0.000760745
0.00075925
0.000757521
0.000755573
0.000753418
0.000751051
0.000748493
0.000745752
0.000742814
0.000739697
0.000736395
0.00073291
0.000729239
0.000725381
0.000721314
0.000717047
0.00071255
0.00070708
0.000700742
0.000693577
0.00068607
0.00067798
0.000669323
0.000660037
0.000650077
0.000639397
0.000627978
0.000615752
0.000602626
0.00058877
0.000573799
0.000558184
0.000541174
0.000523995
0.000504747
0.000486487
0.000795732
0.000795324
0.000794608
0.000793618
0.000792349
0.000790834
0.000789069
0.000787088
0.000784884
0.000782462
0.000779844
0.000777024
0.000774006
0.000770794
0.000767393
0.000763802
0.000760006
0.00075601
0.000751807
0.000747377
0.000742708
0.000736866
0.000730388
0.000723001
0.000714823
0.000706491
0.00069742
0.000687713
0.000677255
0.000666092
0.000654139
0.000641331
0.000627652
0.000613132
0.00059749
0.000581193
0.000563465
0.000545516
0.000525471
0.000506485
0.000827965
0.00082756
0.000826847
0.000825844
0.000824564
0.000823023
0.000821231
0.000819205
0.000816958
0.000814487
0.000811801
0.000808914
0.000805815
0.000802518
0.000799022
0.000795318
0.000791405
0.000787283
0.000782932
0.000778352
0.000773509
0.000767524
0.000760088
0.000752794
0.000744613
0.000735824
0.000726113
0.000715903
0.000705011
0.000693321
0.000680792
0.000667488
0.000653151
0.000637989
0.000621687
0.000604691
0.000586202
0.000567537
0.000546662
0.000526987
0.000860792
0.000860396
0.000859677
0.000858669
0.000857371
0.000855811
0.000853992
0.000851933
0.000849636
0.000847119
0.000844376
0.000841418
0.000838245
0.000834867
0.000831266
0.000827458
0.000823437
0.000819186
0.000814696
0.000809962
0.000804954
0.000798503
0.000791036
0.000782736
0.000774594
0.000765103
0.000755188
0.00074468
0.000733308
0.000721129
0.000708007
0.000694134
0.000679158
0.000663372
0.000646373
0.000628658
0.000609392
0.000590046
0.000568346
0.000547958
0.000894224
0.000893834
0.000893108
0.000892094
0.000890782
0.000889203
0.000887359
0.000885261
0.000882921
0.000880362
0.000877558
0.00087454
0.000871292
0.000867829
0.000864142
0.000860228
0.00085609
0.000851716
0.000847096
0.000842215
0.000837037
0.000830254
0.000822805
0.000813918
0.000804695
0.000795166
0.000785263
0.000773826
0.000762107
0.000749394
0.00073579
0.000721229
0.00070568
0.000689191
0.000671481
0.000653111
0.000633075
0.000612992
0.000590521
0.000569401
0.000928243
0.000927854
0.000927137
0.00092611
0.000924795
0.000923194
0.000921331
0.000919199
0.000916818
0.000914206
0.000911349
0.000908273
0.000904958
0.00090141
0.000897634
0.000893628
0.000889379
0.000884885
0.000880129
0.000875105
0.000869681
0.000862738
0.000854231
0.000845852
0.000836528
0.000826359
0.000815401
0.000803888
0.000791405
0.00077815
0.00076399
0.0007488
0.000732604
0.00071548
0.000697086
0.000677987
0.000657243
0.000636429
0.00061313
0.000591338
0.000962853
0.00096247
0.000961752
0.000960726
0.000959398
0.000957776
0.000955887
0.000953733
0.00095132
0.000948653
0.000945749
0.000942609
0.000939233
0.000935606
0.000931747
0.00092764
0.000923288
0.000918679
0.0009138
0.000908626
0.000903117
0.000895359
0.000886865
0.00087793
0.000868021
0.000857195
0.000846043
0.000834136
0.000821063
0.000807397
0.000792589
0.000776857
0.000760007
0.000742246
0.000723095
0.000703293
0.000681805
0.000660267
0.00063616
0.000613719
0.000998054
0.000997674
0.000996955
0.000995922
0.000994586
0.000992952
0.000991043
0.00098886
0.000986414
0.000983706
0.000980751
0.000977548
0.000974108
0.000970421
0.000966471
0.000962279
0.000957822
0.000953098
0.0009481
0.000942782
0.000937098
0.000928576
0.000919563
0.000910055
0.000900089
0.000889149
0.000877871
0.000864658
0.000851299
0.000837146
0.000821677
0.000805318
0.000787812
0.000769379
0.000749504
0.000729005
0.000706711
0.000684477
0.000659599
0.000636483
0.00103382
0.00103346
0.00103275
0.00103171
0.00103036
0.00102871
0.00102679
0.00102458
0.0010221
0.00101935
0.00101635
0.00101309
0.00100959
0.00100583
0.00100181
0.000997526
0.000992972
0.000988144
0.000983016
0.000977556
0.000970796
0.000962402
0.000952786
0.000943308
0.000932753
0.000921739
0.000909165
0.000896285
0.000882048
0.000867156
0.000851215
0.000834233
0.000816023
0.00079687
0.000776357
0.000755091
0.000732057
0.000709134
0.000683455
0.000659664
0.00107017
0.00106981
0.0010691
0.00106807
0.00106672
0.00106506
0.00106311
0.00106087
0.00105837
0.00105559
0.00105254
0.00104923
0.00104567
0.00104184
0.00103775
0.00103338
0.00102873
0.00102379
0.00101855
0.00101295
0.00100494
0.000996715
0.000987216
0.000977158
0.000965286
0.000954236
0.000940927
0.000927889
0.000913379
0.0008976
0.000881055
0.000863502
0.000844588
0.000824727
0.000803498
0.000781542
0.000757781
0.000734115
0.00070771
0.000683251
0.00110709
0.00110674
0.00110603
0.001105
0.00110364
0.00110198
0.00110001
0.00109775
0.00109521
0.0010924
0.00108931
0.00108596
0.00108234
0.00107844
0.00107428
0.00106984
0.0010651
0.00106005
0.00105469
0.00104895
0.00104025
0.00103153
0.00102145
0.0010108
0.000999574
0.000987214
0.000973763
0.000959937
0.000945201
0.000928518
0.000911088
0.000893079
0.00087347
0.000852936
0.00083092
0.000808295
0.000783745
0.000759381
0.000732245
0.000707169
0.00114456
0.00114423
0.00114352
0.00114249
0.00114113
0.00113945
0.00113746
0.00113519
0.00113263
0.00112978
0.00112666
0.00112326
0.00111958
0.00111564
0.0011114
0.00110688
0.00110205
0.00109691
0.00109142
0.00108533
0.00107676
0.00106601
0.00105682
0.00104482
0.00103367
0.00102059
0.00100704
0.000992426
0.000976252
0.000959852
0.000942122
0.000922852
0.000902715
0.000881482
0.000858714
0.00083534
0.000810055
0.000785007
0.000757092
0.000731384
0.00118258
0.00118225
0.00118156
0.00118052
0.00117916
0.00117748
0.00117548
0.00117319
0.0011706
0.00116773
0.00116457
0.00116112
0.0011574
0.00115339
0.0011491
0.0011445
0.0011396
0.00113435
0.00112874
0.00112117
0.00111213
0.00110155
0.00109185
0.00107991
0.00106739
0.00105432
0.00104003
0.00102463
0.00100821
0.000991539
0.000972895
0.000953093
0.000932006
0.00091024
0.000886792
0.000862688
0.000836639
0.000810932
0.00078225
0.0007559
0.00122113
0.00122082
0.00122013
0.0012191
0.00121774
0.00121605
0.00121404
0.00121173
0.00120913
0.00120622
0.00120303
0.00119955
0.00119578
0.00119172
0.00118736
0.00118269
0.0011777
0.00117236
0.00116599
0.00115722
0.00114769
0.00113819
0.00112633
0.00111535
0.00110214
0.00108834
0.00107329
0.00105775
0.00104114
0.00102295
0.00100392
0.00098372
0.000961882
0.000939231
0.000915017
0.000890201
0.000863415
0.000837034
0.000807626
0.000780691
0.0012602
0.0012599
0.00125923
0.00125821
0.00125684
0.00125514
0.00125313
0.00125081
0.00124818
0.00124524
0.00124203
0.00123851
0.0012347
0.00123059
0.00122617
0.00122143
0.00121636
0.00121092
0.00120444
0.00119521
0.00118515
0.0011743
0.00116261
0.00115022
0.00113712
0.00112261
0.00110749
0.00109115
0.00107367
0.00105519
0.00103524
0.00101403
0.000992276
0.00096829
0.000943485
0.000917922
0.000890468
0.000863313
0.000833248
0.000805722
0.00129977
0.00129949
0.00129883
0.00129781
0.00129644
0.00129474
0.00129272
0.00129039
0.00128774
0.0012848
0.00128154
0.001278
0.00127415
0.00127
0.00126552
0.00126072
0.00125556
0.00125001
0.00124224
0.00123254
0.00122196
0.0012105
0.00119911
0.00118606
0.00117227
0.00115701
0.00114191
0.00112472
0.00110637
0.00108704
0.0010661
0.00104511
0.00102175
0.000997952
0.000971936
0.000945905
0.000917625
0.000889849
0.000859083
0.000830924
0.00133984
0.00133956
0.00133891
0.0013379
0.00133655
0.00133484
0.00133281
0.00133047
0.00132781
0.00132484
0.00132158
0.001318
0.00131412
0.00130991
0.00130538
0.00130052
0.00129527
0.00128835
0.00127912
0.0012699
0.0012588
0.00124769
0.00123481
0.001222
0.00120753
0.00119233
0.00117567
0.00115846
0.00113995
0.00111893
0.00109837
0.00107642
0.00105193
0.00102732
0.00100106
0.000973902
0.000944881
0.000916512
0.000885046
0.000856282
0.00138036
0.00138012
0.00137947
0.00137846
0.00137711
0.0013754
0.00137338
0.00137103
0.00136836
0.00136538
0.00136209
0.00135849
0.00135457
0.00135032
0.00134575
0.00134081
0.00133522
0.0013266
0.00131792
0.00130727
0.00129658
0.00128493
0.00127142
0.00125709
0.00124281
0.0012269
0.00121026
0.00119142
0.00117287
0.00115235
0.00113011
0.0011065
0.0010829
0.00105653
0.00103003
0.00100214
0.000972326
0.000943225
0.000911097
0.000881815
0.00142133
0.0014211
0.00142047
0.00141948
0.00141813
0.00141644
0.00141441
0.00141205
0.00140937
0.00140638
0.00140307
0.00139943
0.00139549
0.00139121
0.00138658
0.00138156
0.00137484
0.00136577
0.00135569
0.00134452
0.00133433
0.00132213
0.00130801
0.00129388
0.00127804
0.00126138
0.00124487
0.00122596
0.00120495
0.00118509
0.00116188
0.00113789
0.00111263
0.00108644
0.00105823
0.00103034
0.000999781
0.000970016
0.000937279
0.000907387
0.00146274
0.00146251
0.0014619
0.00146091
0.00145957
0.00145787
0.00145585
0.00145349
0.00145081
0.00144781
0.00144448
0.00144083
0.00143685
0.00143253
0.00142785
0.00142151
0.00141323
0.00140488
0.00139429
0.00138365
0.00137093
0.0013582
0.00134539
0.00133066
0.00131405
0.00129752
0.00127848
0.00125968
0.00123854
0.00121701
0.00119361
0.00116935
0.00114301
0.00111639
0.00108703
0.00105826
0.00102713