/*--------------------------------*- C++ -*----------------------------------*\
| =========                 |                                                 |
| \\      /  F ield         | OpenFOAM: The Open Source CFD Toolbox           |
|  \\    /   O peration     | Version:  2506                                  |
|   \\  /    A nd           | Website:  www.openfoam.com                      |
|    \\/     M anipulation  |                                                 |
\*---------------------------------------------------------------------------*/
FoamFile
{
    version     2.0;
    format      ascii;
    arch        "LSB;label=32;scalar=64";
    class       volScalarField;
    location    "6000";
    object      omega;
}
// * * * * * * * * * * * * * * * * * * * * * * * * * * * * * * * * * * * * * //

dimensions      [0 0 -1 0 0 0 0];

internalField   nonuniform List<scalar> 
72100
(
3.51397e+06
3.51397e+06
3.51397e+06
3.51397e+06
3.51397e+06
3.51397e+06
3.51397e+06
3.51397e+06
3.51397e+06
3.51397e+06
3.51397e+06
3.51397e+06
3.51397e+06
3.51397e+06
3.51397e+06
3.51397e+06
3.51397e+06
3.51396e+06
3.51396e+06
3.51396e+06
3.51396e+06
3.51396e+06
3.51396e+06
3.51396e+06
3.51396e+06
3.51396e+06
3.51396e+06
3.51396e+06
3.51396e+06
3.51396e+06
3.51395e+06
3.51395e+06
3.51395e+06
3.51395e+06
3.51395e+06
3.51395e+06
3.51395e+06
3.51395e+06
3.51395e+06
3.51395e+06
599823
598907
598890
598877
598859
598837
598813
598786
598758
598727
598695
598661
598626
598589
598551
598511
598470
598428
598384
598339
598293
598245
598197
598147
598096
598045
597993
597941
597888
597835
597782
597730
597680
597630
597583
597537
597494
597451
597417
597350
204341
203752
203715
203681
203639
203588
203530
203465
203396
203321
203242
203158
203070
202978
202881
202780
202675
202565
202452
202334
202211
202084
201952
201817
201677
201533
201385
201233
201078
200920
200759
200597
200433
200272
200110
199957
199798
199666
199509
199393
101373
101006
100960
100914
100856
100785
100704
100612
100511
100402
100285
100161
100029
99889.4
99742.4
99588
99426.1
99256.4
99079.1
98893.5
98699.3
98496.4
98284.8
98064.7
97835.6
97597.2
97349.5
97092.3
96825.6
96549.8
96264.8
95972.6
95671.5
95367.8
95054.9
94750.4
94430.2
94146.7
93819.8
93578.2
63305.2
63090.3
63048.9
63007.3
62953.3
62884.4
62802.6
62708.8
62604.2
62489.4
62364.8
62230.7
62087.3
61934.7
61772.8
61601.5
61420.7
61230
61029.4
60818.3
60595.9
60362.1
60116.6
59859.1
59588.8
59305
59007.2
58694.7
58366.5
58022.6
57661.9
57285.2
56890.6
56482.2
56054.1
55620.6
55161
54723
54232.7
53822.9
45173.2
45055.4
45028.9
45002.3
44964.8
44913.4
44849.2
44773
44685.8
44588
44480.3
44362.9
44236.1
44099.9
43954.3
43799.2
43634.4
43459.8
43274.9
43079.4
42873
42654.9
42424.7
42181.8
41925.1
41654
41367.4
41064.1
40742.7
40402.1
40040.6
39657.1
39249.3
38817.7
38357.3
37874.7
37355.7
36829.5
36245.8
35698.8
34657.1
34596
34586
34576.1
34557.3
34526.6
34484.6
34431.8
34368.5
34295.3
34212.8
34121.2
34020.8
33911.7
33794.1
33667.7
33532.6
33388.6
33235.4
33073.1
32901.8
32720.4
32528.2
32324.6
32108.9
31880.3
31637.9
31380.1
31105.5
30812.5
30498.9
30162.7
29801.2
29412
28990.9
28537.2
28041.9
27514.8
26928.3
26326.3
27751.4
27723.7
27726.9
27730.9
27728.3
27715.9
27693.7
27661.9
27620.5
27570.1
27511
27443.6
27368.2
27285
27194
27095.4
26989.1
26874.9
26752.8
26623.9
26488.4
26344.7
26192.1
26029.9
25858.3
25676.6
25483.7
25278.2
25059.1
24824.5
24572.4
24300.3
24005.7
23684.8
23333.8
22948
22521
22050
21521.4
20940.8
22864.9
22856.3
22868.1
22882
22891.8
22894
22888.1
22873.7
22850.9
22820
22781.3
22735.2
22681.9
22621.6
22554.4
22480.6
22400.1
22312.8
22218.8
22118.9
22013.4
21901.3
21782
21654.8
21521.1
21380
21230.3
21071.4
20902
20720.7
20525.6
20314.3
20084.5
19832.2
19553.8
19243.2
18895.2
18500.7
18052.6
17535.2
19230.6
19232.1
19248.5
19268.5
19286.7
19299.7
19306.2
19305.8
19298.3
19283.9
19262.7
19235
19200.9
19160.8
19114.8
19063
19005.5
18942.3
18873.4
18799
18719.3
18634.2
18543.1
18445.6
18342.8
18234.2
18119.3
17998.3
17869.7
17732.4
17584.9
17425
17250.6
17057.9
16843.8
16601.9
16327.5
16009.4
15642.7
15202.5
16437.3
16443.7
16462.1
16485
16508.1
16528.1
16543.5
16553.5
16557.8
16556.3
16549.2
16536.5
16518.4
16495
16466.7
16433.4
16395.3
16352.4
16304.9
16252.6
16195.5
16133.9
16067.5
15996.1
15919.5
15838.1
15751.8
15660.7
15564.6
15462.6
15353.5
15235.3
15106.1
14962.8
14802.3
14619
14408.1
14158.6
13865.5
13502.2
14239.7
14248.2
14266.8
14290.5
14315.8
14339.7
14360.7
14377.8
14390.5
14398.7
14402.3
14401.3
14395.8
14386
14371.9
14353.6
14331.4
14305.2
14275.1
14241.1
14203.2
14161.4
14115.8
14066.2
14012.3
13954.5
13892.6
13826.6
13756.7
13682.7
13604.2
13519.5
13426.8
13323.6
13207.1
13072.3
12914.6
12724.2
12494.9
12202.3
12479.4
12488.7
12506.4
12529.4
12554.9
12580.4
12604.3
12625.7
12644.1
12659
12670.4
12678.1
12682.2
12682.8
12679.8
12673.5
12663.9
12651.1
12635.2
12616.2
12593.9
12568.4
12539.8
12508.2
12473.3
12435.3
12394.1
12349.7
12302
12251.1
12197.1
12139.2
12076
12005.2
11924.5
11829.7
11716.2
11575.7
11401
11170.8
11048.5
11057.8
11074.2
11095.7
11120.1
11145.3
11170.1
11193.6
11215.2
11234.4
11251
11264.9
11276
11284.3
11289.9
11292.9
11293.2
11291
11286.3
11279.2
11269.5
11257.3
11242.6
11225.7
11206.3
11184.6
11160.6
11134.3
11105.5
11074.4
11040.8
11004.8
10965.3
10920.8
10869.4
10807.4
10730.7
10632
10503.8
10328
9870.02
9878.99
9893.96
9913.45
9936
9960.02
9984.31
10008.3
10031.3
10052.8
10072.5
10090.4
10106.3
10120.2
10132.1
10141.9
10149.8
10155.8
10159.9
10162.2
10162.6
10161.1
10157.7
10152.6
10145.8
10137.4
10127.5
10116.1
10103.1
10088.7
10072.6
10054.9
10035.2
10012.4
9985.07
9950.14
9904.13
9840.33
9752.1
9622.83
8885.7
8894.16
8907.82
8925.58
8946.39
8969.02
8992.47
9016.08
9039.28
9061.66
9082.94
9103.2
9122.13
9139.68
9155.88
9170.7
9184.18
9196.34
9207.24
9216.87
9225.15
9232.06
9237.65
9242.13
9245.53
9247.94
9249.51
9250.29
9250.33
9249.71
9248.38
9246.32
9243.38
9238.88
9231.67
9219.43
9199.26
9165.07
9111.19
9021.66
8052.68
8060.53
8073.03
8089.32
8108.63
8129.97
8152.52
8175.52
8198.55
8221.27
8243.39
8264.85
8285.47
8305.24
8324.26
8342.42
8359.82
8376.47
8392.41
8407.62
8422.01
8435.55
8448.26
8460.35
8471.9
8483.02
8493.89
8504.61
8515.27
8526.03
8536.91
8547.97
8559.12
8570.05
8579.85
8586.92
8588.55
8579.95
8555.46
8501.11
7340.21
7347.4
7358.81
7373.71
7391.54
7411.53
7432.99
7455.27
7477.96
7500.74
7523.33
7545.5
7567.21
7588.43
7609.15
7629.42
7649.4
7669.13
7688.68
7708.01
7727.02
7745.66
7763.94
7782.04
7800.07
7818.16
7836.49
7855.25
7874.55
7894.62
7915.53
7937.45
7960.36
7984.22
8008.28
8031.63
8051.68
8065.09
8065.7
8042.98
6725.09
6731.62
6742
6755.61
6772.04
6790.66
6810.93
6832.28
6854.35
6876.84
6899.48
6922.06
6944.5
6966.72
6988.64
7010.36
7031.96
7053.67
7075.65
7097.91
7120.3
7142.77
7165.33
7188.1
7211.21
7234.83
7259.12
7284.32
7310.6
7338.21
7367.32
7398.16
7430.81
7465.42
7501.41
7538.43
7574.03
7606.22
7628.36
7633.46
6189.53
6195.44
6204.87
6217.3
6232.39
6249.68
6268.71
6289.02
6310.27
6332.2
6354.56
6377.15
6399.89
6422.67
6445.45
6468.23
6491.02
6514
6537.5
6561.71
6586.49
6611.75
6637.49
6663.82
6690.86
6718.78
6747.78
6778.09
6809.94
6843.62
6879.36
6917.48
6958.11
7001.6
7047.51
7095.95
7144.64
7192.76
7233.4
7262.78
5719.72
5725.06
5733.63
5744.97
5758.83
5774.83
5792.62
5811.82
5832.13
5853.31
5875.15
5897.46
5920.14
5943.12
5966.32
5989.76
6013.42
6037.34
6061.78
6087.2
6113.55
6140.76
6168.79
6197.75
6227.75
6258.96
6291.59
6325.91
6362.15
6400.64
6441.67
6485.65
6532.77
6583.51
6637.58
6695.46
6755.08
6816.55
6872.97
6923.21
5304.77
5309.6
5317.39
5327.74
5340.47
5355.26
5371.84
5389.9
5409.2
5429.5
5450.65
5472.46
5494.83
5517.7
5540.99
5564.72
5588.86
5613.44
5638.54
5664.61
5691.94
5720.42
5750.02
5780.83
5812.98
5846.64
5882.02
5919.38
5959.01
6001.27
6046.47
6095.09
6147.39
6203.99
6264.7
6330.31
6398.98
6471.56
6541.35
6609.31
4936.02
4940.41
4947.51
4956.96
4968.64
4982.29
4997.72
5014.66
5032.9
5052.26
5072.6
5093.74
5115.61
5138.14
5161.26
5184.98
5209.28
5234.17
5259.72
5286.12
5313.97
5343.18
5373.77
5405.82
5439.44
5474.83
5512.2
5551.82
5594
5639.12
5687.54
5739.77
5796.15
5857.38
5923.43
5995.27
6071.35
6153.09
6234.11
6317
4606.52
4610.51
4616.98
4625.63
4636.35
4648.96
4663.28
4679.13
4696.32
4714.7
4734.14
4754.52
4775.74
4797.75
4820.49
4843.96
4868.16
4893.1
4918.82
4945.38
4973.4
5002.94
5034.05
5066.81
5101.37
5137.9
5176.62
5217.83
5261.85
5309.07
5359.87
5414.83
5474.33
5539.15
5609.39
5686.2
5768.26
5857.44
5947.79
6043.14
4310.59
4314.22
4320.14
4328.06
4337.92
4349.56
4362.85
4377.65
4393.8
4411.18
4429.69
4449.22
4469.7
4491.06
4513.27
4536.32
4560.21
4584.97
4610.61
4637.17
4665.11
4694.67
4725.93
4759.01
4794.04
4831.22
4870.78
4913.01
4958.25
5006.91
5059.41
5116.33
5178.14
5245.66
5319.09
5399.74
5486.52
5581.66
5679.65
5785.27
4043.57
4046.89
4052.31
4059.58
4068.66
4079.41
4091.74
4105.54
4120.69
4137.09
4154.65
4173.29
4192.95
4213.57
4235.13
4257.62
4281.04
4305.43
4330.8
4357.19
4384.86
4414.21
4445.36
4478.42
4513.57
4551
4590.95
4633.73
4679.68
4729.22
4782.81
4841.06
4904.45
4973.88
5049.66
5133.17
5223.58
5323.36
5427.52
5541.48
3801.62
3804.67
3809.64
3816.33
3824.7
3834.64
3846.08
3858.94
3873.13
3888.57
3905.19
3922.92
3941.71
3961.53
3982.36
4004.18
4027.01
4050.88
4075.83
4101.87
4129.14
4158.11
4188.92
4221.72
4256.7
4294.05
4334.03
4376.96
4423.18
4473.15
4527.32
4586.32
4650.69
4721.36
4798.73
4884.26
4977.33
5080.61
5189.6
5310.22
3581.53
3584.33
3588.91
3595.08
3602.8
3612
3622.62
3634.6
3647.88
3662.39
3678.09
3694.91
3712.82
3731.8
3751.83
3772.91
3795.06
3818.31
3842.7
3868.26
3895.02
3923.47
3953.78
3986.12
4020.69
4057.69
4097.42
4140.16
4186.3
4236.28
4290.6
4349.88
4414.7
4486.03
4564.33
4651.14
4746.03
4851.81
4964.47
5090.25
3380.6
3383.19
3387.42
3393.11
3400.26
3408.78
3418.65
3429.81
3442.23
3455.85
3470.65
3486.57
3503.61
3521.72
3540.93
3561.21
3582.61
3605.15
3628.88
3653.84
3680.01
3707.84
3737.52
3769.25
3803.22
3839.68
3878.9
3921.2
3966.95
4016.62
4070.71
4129.86
4194.69
4266.16
4344.82
4432.26
4528.23
4635.63
4750.91
4880.53
3196.56
3198.95
3202.87
3208.14
3214.76
3222.67
3231.84
3242.25
3253.86
3266.65
3280.58
3295.63
3311.79
3329.04
3347.4
3366.86
3387.46
3409.24
3432.23
3456.5
3482.02
3509.13
3538.09
3569.08
3602.32
3638.07
3676.59
3718.23
3763.35
3812.43
3865.98
3924.66
3989.1
4060.29
4138.82
4226.32
4322.71
4430.95
4547.94
4680.25
3027.47
3029.69
3033.32
3038.21
3044.36
3051.71
3060.24
3069.95
3080.81
3092.8
3105.91
3120.12
3135.42
3151.82
3169.33
3187.95
3207.73
3228.69
3250.9
3274.42
3299.22
3325.55
3353.7
3383.87
3416.28
3451.18
3488.86
3529.66
3573.95
3622.23
3674.98
3732.9
3796.62
3867.14
3945.13
4032.21
4128.44
4236.86
4354.72
4488.7
2871.68
2873.73
2877.11
2881.66
2887.37
2894.21
2902.16
2911.23
2921.39
2932.64
2944.96
2958.36
2972.84
2988.4
3005.06
3022.85
3041.78
3061.91
3083.3
3106.01
3130.04
3155.56
3182.85
3212.13
3243.62
3277.59
3314.31
3354.13
3397.44
3444.72
3496.47
3553.38
3616.11
3685.66
3762.73
3848.96
3944.55
4052.54
4170.56
4305.3
2727.75
2729.67
2732.82
2737.04
2742.36
2748.74
2756.17
2764.63
2774.15
2784.7
2796.28
2808.91
2822.6
2837.35
2853.18
2870.12
2888.21
2907.5
2928.05
2949.92
2973.14
2997.8
3024.2
3052.55
3083.07
3116.03
3151.71
3190.45
3232.65
3278.78
3329.36
3385.07
3446.58
3514.89
3590.73
3675.77
3770.28
3877.31
3994.87
4129.57
2594.45
2596.25
2599.19
2603.12
2608.08
2614.04
2620.99
2628.9
2637.81
2647.72
2658.6
2670.5
2683.44
2697.39
2712.42
2728.54
2745.8
2764.25
2783.94
2804.95
2827.32
2851.11
2876.6
2903.99
2933.5
2965.4
2999.97
3037.56
3078.56
3123.44
3172.71
3227.07
3287.16
3354.02
3428.38
3511.89
3604.96
3710.6
3827.12
3961.09
2470.72
2472.41
2475.14
2478.82
2483.46
2489.03
2495.53
2502.95
2511.29
2520.6
2530.83
2542.05
2554.25
2567.46
2581.71
2597.03
2613.47
2631.08
2649.92
2670.06
2691.57
2714.48
2739.03
2765.44
2793.92
2824.73
2858.15
2894.54
2934.27
2977.81
3025.68
3078.55
3137.08
3202.3
3274.97
3356.71
3448.02
3551.87
3666.89
3799.51
2355.62
2357.2
2359.75
2363.21
2367.55
2372.76
2378.85
2385.8
2393.64
2402.37
2412.01
2422.57
2434.08
2446.57
2460.08
2474.63
2490.27
2507.06
2525.05
2544.34
2564.97
2586.99
2610.61
2636.03
2663.46
2693.16
2725.42
2760.57
2798.98
2841.13
2887.51
2938.8
2995.67
3059.1
3129.9
3209.65
3298.93
3400.68
3513.77
3644.51
2248.34
2249.81
2252.21
2255.45
2259.52
2264.41
2270.11
2276.63
2284
2292.21
2301.29
2311.24
2322.1
2333.91
2346.69
2360.5
2375.37
2391.36
2408.53
2426.95
2446.72
2467.85
2490.53
2514.96
2541.35
2569.94
2601.02
2634.9
2671.98
2712.69
2757.54
2807.18
2862.29
2923.84
2992.62
3070.22
3157.26
3256.63
3367.42
3495.82
2148.14
2149.52
2151.78
2154.82
2158.63
2163.23
2168.58
2174.72
2181.64
2189.36
2197.91
2207.31
2217.55
2228.72
2240.82
2253.91
2268.03
2283.24
2299.6
2317.2
2336.1
2356.34
2378.1
2401.55
2426.9
2454.39
2484.28
2516.9
2552.62
2591.87
2635.16
2683.12
2736.4
2795.98
2862.65
2937.95
3022.57
3119.33
3227.54
3353.21
2054.4
2055.7
2057.82
2060.68
2064.27
2068.59
2073.63
2079.4
2085.91
2093.18
2101.24
2110.1
2119.78
2130.33
2141.79
2154.19
2167.59
2182.06
2197.63
2214.41
2232.46
2251.84
2272.69
2295.17
2319.49
2345.88
2374.6
2405.96
2440.32
2478.11
2519.82
2566.06
2617.49
2675.05
2739.52
2812.44
2894.5
2988.47
3093.84
3216.46
1966.55
1967.77
1969.77
1972.46
1975.85
1979.91
1984.66
1990.1
1996.22
2003.08
2010.68
2019.04
2028.19
2038.17
2049.01
2060.76
2073.48
2087.22
2102.04
2118.02
2135.25
2153.78
2173.73
2195.27
2218.58
2243.88
2271.44
2301.55
2334.57
2370.9
2411.02
2455.55
2505.1
2560.6
2622.84
2693.29
2772.7
2863.74
2966.07
3085.35
1884.1
1885.25
1887.13
1889.67
1892.86
1896.7
1901.17
1906.3
1912.07
1918.54
1925.71
1933.6
1942.25
1951.7
1961.96
1973.1
1985.16
1998.2
2012.31
2027.52
2043.94
2061.64
2080.72
2101.33
2123.65
2147.89
2174.31
2203.2
2234.89
2269.78
2308.33
2351.13
2398.81
2452.24
2512.21
2580.16
2656.83
2744.84
2843.98
2959.72
1806.59
1807.68
1809.45
1811.85
1814.86
1818.48
1822.71
1827.54
1833
1839.1
1845.88
1853.33
1861.51
1870.45
1880.17
1890.73
1902.17
1914.55
1927.96
1942.44
1958.08
1974.98
1993.2
2012.9
2034.26
2057.47
2082.78
2110.47
2140.84
2174.32
2211.32
2252.42
2298.23
2349.6
2407.3
2472.71
2546.62
2631.52
2727.35
2839.36
1733.63
1734.66
1736.34
1738.6
1741.45
1744.87
1748.86
1753.42
1758.59
1764.35
1770.76
1777.8
1785.55
1794.01
1803.22
1813.22
1824.08
1835.84
1848.57
1862.35
1877.24
1893.37
1910.75
1929.58
1950
1972.21
1996.44
2022.95
2052.05
2084.13
2119.61
2159.04
2203
2252.32
2307.76
2370.64
2441.75
2523.51
2615.95
2724.12
1664.86
1665.84
1667.43
1669.56
1672.26
1675.48
1679.27
1683.59
1688.47
1693.92
1699.98
1706.65
1713.98
1721.99
1730.72
1740.2
1750.5
1761.67
1773.77
1786.86
1801.04
1816.41
1833.01
1850.99
1870.5
1891.74
1914.92
1940.29
1968.15
1998.88
2032.87
2070.65
2112.8
2160.1
2213.29
2273.66
2341.98
2420.58
2509.58
2613.82
1599.96
1600.89
1602.39
1604.41
1606.96
1610.02
1613.6
1617.69
1622.31
1627.48
1633.21
1639.53
1646.47
1654.06
1662.33
1671.33
1681.1
1691.7
1703.2
1715.65
1729.15
1743.78
1759.63
1776.8
1795.42
1815.73
1837.88
1862.15
1888.81
1918.21
1950.76
1986.94
2027.31
2072.64
2123.62
2181.5
2247.06
2322.5
2408.05
2508.31
1538.64
1539.51
1540.94
1542.85
1545.27
1548.17
1551.56
1555.44
1559.82
1564.71
1570.14
1576.14
1582.71
1589.91
1597.76
1606.29
1615.57
1625.64
1636.56
1648.4
1661.24
1675.18
1690.27
1706.67
1724.47
1743.87
1765.03
1788.23
1813.73
1841.85
1872.99
1907.61
1946.25
1989.64
2038.47
2093.91
2156.73
2229.05
2311.14
2407.41
1480.64
1481.46
1482.81
1484.63
1486.92
1489.67
1492.88
1496.56
1500.72
1505.36
1510.51
1516.19
1522.43
1529.25
1536.7
1544.81
1553.62
1563.18
1573.56
1584.82
1597.04
1610.31
1624.71
1640.33
1657.33
1675.85
1696.08
1718.25
1742.63
1769.52
1799.29
1832.41
1869.36
1910.87
1957.58
2010.63
2070.77
2140.01
2218.68
2310.97
1425.7
1426.5
1427.77
1429.5
1431.67
1434.28
1437.32
1440.82
1444.77
1449.17
1454.06
1459.45
1465.37
1471.85
1478.92
1486.63
1495
1504.08
1513.95
1524.65
1536.28
1548.93
1562.66
1577.55
1593.77
1611.45
1630.78
1651.96
1675.26
1700.95
1729.41
1761.06
1796.39
1836.07
1880.73
1931.45
1988.96
2055.18
2130.47
2218.82
1373.64
1374.39
1375.6
1377.24
1379.3
1381.78
1384.67
1387.99
1391.74
1395.93
1400.57
1405.69
1411.31
1417.47
1424.19
1431.5
1439.46
1448.1
1457.47
1467.66
1478.73
1490.79
1503.88
1518.09
1533.56
1550.43
1568.88
1589.12
1611.37
1635.92
1663.11
1693.35
1727.11
1765.02
1807.69
1856.15
1911.1
1974.37
2046.35
2130.8
1324.24
1324.95
1326.11
1327.66
1329.62
1331.98
1334.73
1337.87
1341.43
1345.42
1349.83
1354.71
1360.04
1365.89
1372.28
1379.24
1386.8
1395.02
1403.93
1413.62
1424.19
1435.68
1448.15
1461.7
1476.47
1492.56
1510.18
1529.49
1550.74
1574.2
1600.17
1629.05
1661.3
1697.5
1738.25
1784.52
1836.98
1897.38
1966.12
2046.77
1277.33
1278
1279.1
1280.58
1282.44
1284.68
1287.3
1290.29
1293.67
1297.47
1301.67
1306.3
1311.38
1316.94
1323.01
1329.63
1336.83
1344.64
1353.13
1362.36
1372.45
1383.38
1395.26
1408.19
1422.29
1437.64
1454.47
1472.9
1493.19
1515.59
1540.39
1567.97
1598.76
1633.32
1672.21
1716.36
1766.42
1824.04
1889.62
1966.55
1232.74
1233.38
1234.43
1235.83
1237.6
1239.73
1242.22
1245.07
1248.29
1251.89
1255.89
1260.3
1265.14
1270.43
1276.21
1282.51
1289.35
1296.8
1304.88
1313.67
1323.29
1333.72
1345.04
1357.38
1370.83
1385.5
1401.56
1419.15
1438.52
1459.91
1483.59
1509.92
1539.3
1572.28
1609.39
1651.5
1699.24
1754.17
1816.69
1890
1190.32
1190.94
1191.93
1193.27
1194.95
1196.98
1199.35
1202.06
1205.13
1208.55
1212.36
1216.56
1221.17
1226.21
1231.71
1237.7
1244.23
1251.31
1259.02
1267.41
1276.57
1286.54
1297.33
1309.11
1321.92
1335.94
1351.26
1368.07
1386.57
1406.97
1429.58
1454.71
1482.75
1514.22
1549.61
1589.76
1635.26
1687.59
1747.16
1816.97
1149.94
1150.52
1151.47
1152.75
1154.35
1156.28
1158.53
1161.11
1164.04
1167.31
1170.93
1174.94
1179.33
1184.13
1189.38
1195.08
1201.29
1208.05
1215.39
1223.42
1232.15
1241.66
1251.96
1263.2
1275.44
1288.81
1303.44
1319.49
1337.16
1356.63
1378.2
1402.19
1428.95
1458.96
1492.7
1530.97
1574.33
1624.16
1680.87
1747.29
1111.46
1112.02
1112.92
1114.14
1115.67
1117.5
1119.65
1122.12
1124.9
1128.02
1131.48
1135.29
1139.48
1144.06
1149.06
1154.5
1160.42
1166.86
1173.88
1181.56
1189.89
1198.94
1208.8
1219.51
1231.21
1243.97
1257.94
1273.27
1290.12
1308.72
1329.31
1352.2
1377.73
1406.35
1438.52
1474.98
1516.27
1563.71
1617.68
1680.84
1074.78
1075.32
1076.18
1077.33
1078.79
1080.54
1082.59
1084.94
1087.59
1090.57
1093.87
1097.5
1101.5
1105.87
1110.64
1115.83
1121.47
1127.62
1134.33
1141.67
1149.63
1158.27
1167.69
1177.92
1189.08
1201.28
1214.61
1229.25
1245.34
1263.11
1282.76
1304.6
1328.94
1356.24
1386.91
1421.64
1460.96
1506.09
1557.43
1617.46
1039.79
1040.3
1041.12
1042.22
1043.61
1045.28
1047.24
1049.48
1052.01
1054.85
1057.99
1061.47
1065.28
1069.45
1074
1078.96
1084.35
1090.23
1096.65
1103.65
1111.26
1119.52
1128.51
1138.29
1148.95
1160.6
1173.33
1187.31
1202.68
1219.65
1238.42
1259.25
1282.47
1308.5
1337.73
1370.81
1408.24
1451.18
1499.99
1557.01
1006.39
1006.87
1007.66
1008.7
1010.03
1011.62
1013.49
1015.63
1018.05
1020.75
1023.76
1027.07
1030.71
1034.69
1039.04
1043.78
1048.94
1054.57
1060.73
1067.42
1074.68
1082.57
1091.16
1100.51
1110.7
1121.83
1133.99
1147.34
1162.02
1178.23
1196.14
1216.02
1238.19
1262.99
1290.85
1322.36
1357.99
1398.82
1445.22
1499.36
974.476
974.944
975.689
976.692
977.954
979.476
981.256
983.297
985.608
988.192
991.064
994.229
997.704
1001.51
1005.67
1010.2
1015.14
1020.55
1026.44
1032.84
1039.78
1047.32
1055.54
1064.47
1074.21
1084.84
1096.47
1109.23
1123.25
1138.72
1155.82
1174.81
1195.95
1219.61
1246.15
1276.16
1310.07
1348.89
1392.99
1444.38
943.979
944.427
945.139
946.097
947.301
948.754
950.454
952.404
954.61
957.081
959.824
962.852
966.174
969.811
973.786
978.128
982.876
988.061
993.698
999.823
1006.46
1013.67
1021.52
1030.07
1039.39
1049.55
1060.67
1072.86
1086.27
1101.02
1117.36
1135.5
1155.66
1178.22
1203.52
1232.09
1264.36
1301.28
1343.17
1391.94
914.818
915.248
915.93
916.843
917.992
919.377
921.002
922.866
924.976
927.339
929.96
932.857
936.036
939.516
943.323
947.491
952.055
957.015
962.417
968.272
974.631
981.541
989.042
997.211
1006.13
1015.85
1026.48
1038.14
1050.95
1065.06
1080.66
1097.96
1117.21
1138.72
1162.84
1190.05
1220.76
1255.85
1295.65
1341.93
886.919
887.33
887.983
888.856
889.956
891.277
892.83
894.612
896.63
898.889
901.399
904.171
907.214
910.549
914.203
918.209
922.587
927.343
932.514
938.117
944.21
950.829
958.008
965.826
974.347
983.645
993.827
1004.97
1017.21
1030.71
1045.61
1062.13
1080.5
1101.01
1124
1149.92
1179.15
1212.51
1250.31
1294.21
860.215
860.607
861.233
862.068
863.123
864.388
865.872
867.577
869.503
871.665
874.07
876.725
879.641
882.843
886.36
890.205
894.402
898.969
903.92
909.288
915.114
921.45
928.34
935.824
943.976
952.878
962.613
973.276
984.98
997.883
1012.12
1027.9
1045.43
1065.01
1086.91
1111.6
1139.42
1171.13
1207.05
1248.69
834.642
835.02
835.621
836.422
837.428
838.641
840.061
841.694
843.537
845.606
847.91
850.453
853.256
856.34
859.73
863.421
867.45
871.818
876.555
881.701
887.291
893.35
899.952
907.124
914.93
923.458
932.775
942.971
954.177
966.501
980.107
995.185
1011.92
1030.6
1051.49
1075.01
1101.47
1131.63
1165.75
1205.25
810.146
810.514
811.089
811.856
812.819
813.978
815.34
816.904
818.672
820.654
822.861
825.305
828.001
830.977
834.237
837.783
841.647
845.829
850.366
855.298
860.661
866.471
872.785
879.661
887.142
895.307
904.223
913.988
924.708
936.499
949.503
963.909
979.893
997.712
1017.63
1040.04
1065.24
1093.91
1126.32
1163.79
786.673
787.033
787.586
788.321
789.245
790.354
791.658
793.155
794.852
796.755
798.875
801.229
803.831
806.689
809.815
813.224
816.923
820.943
825.298
830.028
835.162
840.737
846.789
853.375
860.548
868.364
876.901
886.258
896.505
907.79
920.225
933.987
949.257
966.271
985.27
1006.62
1030.62
1057.87
1088.66
1124.21
764.178
764.533
765.061
765.765
766.652
767.716
768.965
770.402
772.032
773.862
775.902
778.174
780.683
783.423
786.422
789.695
793.238
797.099
801.281
805.819
810.743
816.09
821.894
828.21
835.08
842.57
850.751
859.708
869.52
880.313
892.214
905.363
919.948
936.197
954.321
974.671
997.524
1023.44
1052.69
1086.41
742.606
742.952
743.468
744.142
744.995
746.018
747.217
748.598
750.167
751.933
753.902
756.088
758.497
761.133
764.01
767.148
770.546
774.248
778.262
782.617
787.341
792.473
798.036
804.099
810.684
817.861
825.703
834.276
843.681
854.009
865.397
877.972
891.907
907.42
924.715
944.108
965.871
990.533
1018.33
1050.32
721.892
722.235
722.75
723.41
724.23
725.218
726.374
727.702
729.213
730.917
732.817
734.914
737.229
739.759
742.52
745.529
748.79
752.342
756.197
760.376
764.908
769.827
775.172
780.98
787.301
794.183
801.7
809.912
818.921
828.815
839.708
851.742
865.065
879.877
896.379
914.872
935.604
959.066
985.486
1015.84
701.995
702.343
702.857
703.508
704.307
705.262
706.38
707.663
709.122
710.758
712.583
714.602
716.82
719.246
721.896
724.781
727.92
731.329
735.031
739.043
743.389
748.109
753.245
758.812
764.88
771.484
778.687
786.562
795.189
804.67
815.097
826.61
839.351
853.502
869.255
886.893
906.648
928.971
954.085
982.894
682.901
683.241
683.74
684.379
685.167
686.094
687.176
688.417
689.83
691.4
693.157
695.095
697.218
699.553
702.098
704.867
707.885
711.157
714.716
718.568
722.74
727.277
732.202
737.549
743.374
749.709
756.619
764.172
772.443
781.518
791.511
802.525
814.71
828.233
843.281
860.106
878.927
900.182
924.057
951.405
664.568
664.892
665.367
665.995
666.759
667.665
668.714
669.917
671.278
672.796
674.484
676.345
678.387
680.632
683.075
685.741
688.641
691.783
695.201
698.905
702.918
707.279
712.005
717.14
722.728
728.814
735.444
742.692
750.623
759.321
768.892
779.44
791.094
804.022
818.393
834.448
852.394
872.628
895.336
921.297
646.954
647.262
647.724
648.327
649.063
649.943
650.958
652.123
653.431
654.902
656.523
658.318
660.292
662.446
664.794
667.357
670.145
673.17
676.451
680.018
683.878
688.064
692.609
697.543
702.906
708.753
715.119
722.076
729.686
738.026
747.192
757.297
768.449
780.81
794.539
809.865
826.982
846.246
867.849
892.505
630.044
630.329
630.776
631.345
632.054
632.903
633.884
635.006
636.267
637.686
639.252
640.981
642.886
644.957
647.222
649.686
652.368
655.281
658.438
661.863
665.579
669.602
673.972
678.715
683.871
689.486
695.605
702.284
709.586
717.583
726.367
736.045
746.724
758.549
771.671
786.303
802.627
820.98
841.533
864.958
613.798
614.068
614.486
615.03
615.707
616.521
617.469
618.549
619.764
621.127
622.643
624.305
626.136
628.134
630.319
632.695
635.276
638.079
641.117
644.408
647.983
651.855
656.061
660.624
665.581
670.977
676.857
683.269
690.276
697.953
706.374
715.646
725.873
737.193
749.74
763.714
779.285
796.775
816.338
838.594
598.177
598.44
598.832
599.356
600.005
600.779
601.693
602.731
603.9
605.209
606.667
608.268
610.026
611.957
614.06
616.347
618.832
621.527
624.452
627.627
631.065
634.791
638.838
643.228
647.999
653.183
658.831
664.993
671.721
679.093
687.176
696.063
705.861
716.694
728.697
742.048
756.912
773.581
792.207
813.364
583.167
583.414
583.794
584.292
584.92
585.657
586.529
587.525
588.648
589.906
591.3
592.845
594.536
596.394
598.418
600.616
603.009
605.607
608.425
611.484
614.792
618.379
622.269
626.496
631.086
636.07
641.499
647.421
653.889
660.966
668.724
677.252
686.642
697.012
708.494
721.258
735.45
751.345
769.082
789.198
568.74
568.978
569.343
569.816
570.414
571.123
571.948
572.904
573.982
575.192
576.527
578.013
579.638
581.423
583.369
585.489
587.791
590.295
593.01
595.947
599.136
602.592
606.334
610.401
614.814
619.612
624.835
630.526
636.744
643.54
650.985
659.168
668.171
678.107
689.095
701.296
714.852
730.012
746.912
766.046
554.876
555.105
555.45
555.899
556.465
557.148
557.935
558.848
559.884
561.044
562.327
563.752
565.315
567.029
568.901
570.94
573.157
575.564
578.178
581.002
584.075
587.403
591.009
594.92
599.164
603.781
608.804
614.278
620.254
626.783
633.935
641.784
650.418
659.941
670.462
682.128
695.081
709.546
725.653
743.859
541.546
541.765
542.09
542.52
543.057
543.711
544.468
545.339
546.333
547.442
548.677
550.04
551.546
553.19
554.991
556.949
559.083
561.396
563.909
566.631
569.588
572.789
576.26
580.025
584.112
588.553
593.385
598.649
604.39
610.668
617.538
625.072
633.354
642.482
652.557
663.72
676.099
689.906
705.264
722.591
528.733
528.938
529.247
529.657
530.171
530.793
531.522
532.357
533.307
534.369
535.554
536.861
538.306
539.885
541.615
543.497
545.55
547.775
550.189
552.812
555.652
558.732
562.07
565.697
569.631
573.903
578.552
583.612
589.132
595.163
601.762
608.997
616.944
625.694
635.346
646.031
657.864
671.048
685.695
702.195
516.418
516.606
516.906
517.296
517.786
518.379
519.077
519.877
520.785
521.802
522.94
524.195
525.579
527.097
528.755
530.566
532.534
534.678
536.999
539.52
542.25
545.218
548.428
551.915
555.699
559.809
564.282
569.147
574.454
580.245
586.586
593.533
601.16
609.549
618.797
629.025
640.343
652.934
666.906
682.622
504.585
504.76
505.042
505.418
505.887
506.45
507.114
507.881
508.749
509.723
510.815
512.023
513.349
514.808
516.398
518.135
520.025
522.083
524.318
526.74
529.366
532.219
535.31
538.661
542.301
546.253
550.551
555.233
560.333
565.898
571.988
578.659
585.974
594.022
602.884
612.676
623.502
635.531
648.863
663.837
493.215
493.383
493.647
494.007
494.451
494.987
495.622
496.355
497.185
498.122
499.166
500.321
501.593
502.994
504.522
506.191
508.008
509.983
512.131
514.459
516.983
519.724
522.695
525.917
529.416
533.218
537.352
541.85
546.751
552.103
557.95
564.353
571.37
579.086
587.579
596.954
607.31
618.805
631.533
645.804
482.29
482.451
482.705
483.044
483.465
483.979
484.587
485.286
486.079
486.978
487.976
489.079
490.3
491.642
493.111
494.712
496.459
498.358
500.417
502.656
505.083
507.715
510.572
513.669
517.03
520.685
524.662
528.984
533.692
538.834
544.45
550.592
557.326
564.723
572.863
581.837
591.745
602.729
614.881
628.484
471.798
471.951
472.192
472.511
472.918
473.408
473.985
474.653
475.414
476.269
477.226
478.286
479.457
480.741
482.15
483.688
485.362
487.186
489.164
491.314
493.646
496.174
498.92
501.897
505.13
508.641
512.459
516.615
521.14
526.073
531.465
537.362
543.824
550.915
558.714
567.306
576.782
587.279
598.878
611.846
461.725
461.869
462.097
462.4
462.79
463.257
463.808
464.442
465.171
465.987
466.905
467.923
469.043
470.274
471.624
473.099
474.705
476.453
478.355
480.42
482.658
485.088
487.724
490.586
493.694
497.068
500.734
504.726
509.073
513.811
518.985
524.643
530.843
537.641
545.108
553.335
562.399
572.428
583.503
595.867
452.055
452.188
452.404
452.696
453.065
453.511
454.036
454.644
455.335
456.119
456.995
457.969
459.043
460.222
461.518
462.93
464.473
466.149
467.975
469.956
472.105
474.44
476.971
479.721
482.707
485.946
489.47
493.303
497.475
502.026
506.992
512.42
518.361
524.878
532.031
539.902
548.573
558.157
568.731
580.521
442.773
442.897
443.099
443.378
443.727
444.152
444.651
445.235
445.895
446.645
447.478
448.41
449.439
450.57
451.81
453.164
454.644
456.255
458.007
459.907
461.972
464.213
466.647
469.287
472.154
475.264
478.647
482.328
486.335
490.704
495.47
500.675
506.37
512.616
519.465
526.996
535.286
544.443
554.534
565.777
433.856
433.972
434.164
434.423
434.756
435.159
435.638
436.193
436.827
437.541
438.34
439.228
440.212
441.298
442.484
443.783
445.203
446.749
448.43
450.257
452.239
454.391
456.731
459.266
462.018
465.007
468.255
471.788
475.636
479.828
484.401
489.395
494.853
500.836
507.395
514.599
522.523
531.268
540.899
551.614
425.278
425.386
425.569
425.813
426.128
426.514
426.97
427.499
428.106
428.787
429.553
430.407
431.348
432.385
433.525
434.772
436.133
437.617
439.232
440.986
442.892
444.959
447.204
449.642
452.283
455.157
458.275
461.668
465.36
469.382
473.769
478.559
483.791
489.52
495.801
502.694
510.267
518.615
527.805
538.016
417.015
417.118
417.29
417.525
417.823
418.191
418.624
419.13
419.71
420.364
421.1
421.918
422.823
423.817
424.912
426.11
427.416
428.842
430.393
432.078
433.91
435.897
438.052
440.393
442.934
445.694
448.691
451.95
455.494
459.352
463.56
468.154
473.17
478.656
484.666
491.263
498.5
506.472
515.236
524.966
409.04
409.14
409.304