/*--------------------------------*- C++ -*----------------------------------*\
| =========                 |                                                 |
| \\      /  F ield         | OpenFOAM: The Open Source CFD Toolbox           |
|  \\    /   O peration     | Version:  2506                                  |
|   \\  /    A nd           | Website:  www.openfoam.com                      |
|    \\/     M anipulation  |                                                 |
\*---------------------------------------------------------------------------*/
FoamFile
{
    version     2.0;
    format      ascii;
    arch        "LSB;label=32;scalar=64";
    class       surfaceScalarField;
    location    "6000";
    object      phi;
}
// * * * * * * * * * * * * * * * * * * * * * * * * * * * * * * * * * * * * * //

dimensions      [0 3 -1 0 0 0 0];

oriented        oriented;

internalField   nonuniform List<scalar> 
143613
(
9.6128e-07
8.59765e-09
9.55824e-07
6.54295e-09
9.49358e-07
6.82429e-09
9.4202e-07
8.23829e-09
9.33608e-07
9.26309e-09
9.24428e-07
1.01517e-08
9.1452e-07
1.09404e-08
9.03945e-07
1.16764e-08
8.92724e-07
1.23883e-08
8.80861e-07
1.30949e-08
8.68352e-07
1.38078e-08
8.55182e-07
1.45372e-08
8.4133e-07
1.52917e-08
8.26767e-07
1.60759e-08
8.11462e-07
1.68961e-08
7.95378e-07
1.77577e-08
7.78473e-07
1.86662e-08
7.60701e-07
1.96262e-08
7.42e-07
2.06511e-08
7.22297e-07
2.17617e-08
7.01533e-07
2.2939e-08
6.79664e-07
2.41608e-08
6.56632e-07
2.54536e-08
6.32347e-07
2.68379e-08
6.06708e-07
2.8344e-08
5.79614e-07
2.99509e-08
5.50987e-07
3.16726e-08
5.20709e-07
3.347e-08
4.88725e-07
3.54266e-08
4.54886e-07
3.73824e-08
4.1924e-07
3.95751e-08
3.81541e-07
4.15362e-08
3.42152e-07
4.39856e-08
3.00487e-07
4.55287e-08
2.57814e-07
4.83744e-08
2.12401e-07
4.84346e-08
1.68126e-07
5.23379e-08
1.19544e-07
4.82425e-08
7.77188e-08
5.58326e-08
3.8471e-08
2.93458e-08
2.98344e-06
2.44398e-08
2.96898e-06
2.12381e-08
2.95116e-06
2.36663e-08
2.93043e-06
2.84935e-08
2.90655e-06
3.23725e-08
2.88029e-06
3.56335e-08
2.85182e-06
3.85532e-08
2.8213e-06
4.12698e-08
2.78881e-06
4.38926e-08
2.75437e-06
4.64908e-08
2.71796e-06
4.91078e-08
2.67957e-06
5.17801e-08
2.63911e-06
5.4539e-08
2.59651e-06
5.74034e-08
2.55167e-06
6.03951e-08
2.50447e-06
6.35345e-08
2.45483e-06
6.68425e-08
2.40257e-06
7.03356e-08
2.34753e-06
7.40712e-08
2.28946e-06
7.81212e-08
2.22819e-06
8.24138e-08
2.16359e-06
8.68757e-08
2.09547e-06
9.15874e-08
2.02357e-06
9.66507e-08
1.94757e-06
1.02156e-07
1.86716e-06
1.08054e-07
1.78206e-06
1.14356e-07
1.69193e-06
1.2102e-07
1.59654e-06
1.28181e-07
1.49545e-06
1.35568e-07
1.38868e-06
1.43535e-07
1.27555e-06
1.513e-07
1.15687e-06
1.59909e-07
1.03111e-06
1.671e-07
9.01426e-07
1.7606e-07
7.63339e-07
1.80431e-07
6.26879e-07
1.89604e-07
4.7794e-07
1.86046e-07
3.4574e-07
1.97283e-07
1.66377e-07
1.9429e-07
5.15639e-06
4.57348e-08
5.13494e-06
4.32208e-08
5.10722e-06
5.04815e-08
5.07428e-06
6.1152e-08
5.03615e-06
6.99243e-08
4.99391e-06
7.7298e-08
4.94791e-06
8.39063e-08
4.89844e-06
9.00522e-08
4.84561e-06
9.59765e-08
4.78948e-06
1.01836e-07
4.73004e-06
1.0773e-07
4.66721e-06
1.13741e-07
4.60088e-06
1.19937e-07
4.53096e-06
1.26363e-07
4.45727e-06
1.33068e-07
4.37964e-06
1.40099e-07
4.29785e-06
1.47501e-07
4.21167e-06
1.55316e-07
4.1208e-06
1.63683e-07
4.02484e-06
1.7276e-07
3.92348e-06
1.82378e-07
3.81651e-06
1.92383e-07
3.7036e-06
2.02941e-07
3.58429e-06
2.14309e-07
3.45805e-06
2.26679e-07
3.32429e-06
2.39951e-07
3.18257e-06
2.54135e-07
3.03227e-06
2.69223e-07
2.87295e-06
2.85382e-07
2.70383e-06
3.02274e-07
2.52484e-06
3.20273e-07
2.33481e-06
3.38422e-07
2.13483e-06
3.57745e-07
1.92253e-06
3.75585e-07
1.70237e-06
3.94999e-07
1.46778e-06
4.08986e-07
1.23336e-06
4.26113e-07
9.78521e-07
4.28864e-07
7.46721e-07
4.41121e-07
4.03125e-07
4.83134e-07
7.45617e-06
6.63299e-08
7.43002e-06
7.03746e-08
7.3941e-06
8.59755e-08
7.35056e-06
1.04944e-07
7.29989e-06
1.20632e-07
7.24338e-06
1.33908e-07
7.18154e-06
1.45817e-07
7.11477e-06
1.56891e-07
7.04328e-06
1.67552e-07
6.96711e-06
1.78085e-07
6.88624e-06
1.88667e-07
6.80061e-06
1.99445e-07
6.71007e-06
2.10544e-07
6.61446e-06
2.22046e-07
6.51355e-06
2.34038e-07
6.4071e-06
2.46604e-07
6.29482e-06
2.5983e-07
6.17639e-06
2.73791e-07
6.05135e-06
2.88756e-07
5.91914e-06
3.04999e-07
5.77932e-06
3.22214e-07
5.63157e-06
3.40133e-07
5.47546e-06
3.59043e-07
5.31029e-06
3.79441e-07
5.13525e-06
4.01656e-07
4.94959e-06
4.25522e-07
4.75259e-06
4.51055e-07
4.54329e-06
4.78333e-07
4.32102e-06
5.07531e-07
4.08464e-06
5.38306e-07
3.83385e-06
5.70959e-07
3.56706e-06
6.04523e-07
3.28527e-06
6.39657e-07
2.98546e-06
6.73824e-07
2.67277e-06
7.08828e-07
2.33915e-06
7.3874e-07
2.0021e-06
7.67637e-07
1.6368e-06
7.83881e-07
1.29666e-06
7.95833e-07
7.61048e-07
9.12353e-07
9.79238e-06
8.1979e-08
9.76357e-06
1.00329e-07
9.72143e-06
1.27898e-07
9.66956e-06
1.57288e-07
9.60885e-06
1.8165e-07
9.54069e-06
2.02468e-07
9.46577e-06
2.21174e-07
9.38456e-06
2.38563e-07
9.29731e-06
2.55291e-07
9.20411e-06
2.718e-07
9.10495e-06
2.88369e-07
8.99973e-06
3.05229e-07
8.88829e-06
3.22573e-07
8.77041e-06
3.40536e-07
8.64583e-06
3.59256e-07
8.51423e-06
3.78865e-07
8.37526e-06
3.99501e-07
8.22849e-06
4.21287e-07
8.07332e-06
4.44675e-07
7.909e-06
4.70081e-07
7.73503e-06
4.97011e-07
7.55094e-06
5.25069e-07
7.35616e-06
5.54701e-07
7.14979e-06
5.86729e-07
6.93074e-06
6.21659e-07
6.69803e-06
6.59233e-07
6.45063e-06
6.9951e-07
6.18729e-06
7.4271e-07
5.90698e-06
7.8901e-07
5.60819e-06
8.38125e-07
5.29026e-06
8.90249e-07
4.95111e-06
9.44527e-07
4.59146e-06
1.00107e-06
4.20768e-06
1.05779e-06
3.80486e-06
1.11457e-06
3.37404e-06
1.16756e-06
2.93391e-06
1.21412e-06
2.45744e-06
1.25186e-06
2.00362e-06
1.26618e-06
1.24616e-06
1.4932e-06
1.20319e-05
9.32167e-08
1.20014e-05
1.31652e-07
1.19551e-05
1.73946e-07
1.18974e-05
2.15329e-07
1.18295e-05
2.49761e-07
1.17528e-05
2.79484e-07
1.16681e-05
3.0625e-07
1.15759e-05
3.31127e-07
1.14765e-05
3.55042e-07
1.13701e-05
3.7862e-07
1.12567e-05
4.0226e-07
1.11361e-05
4.2629e-07
1.10082e-05
4.50987e-07
1.08727e-05
4.7655e-07
1.07294e-05
5.03176e-07
1.05778e-05
5.31063e-07
1.04175e-05
5.60407e-07
1.0248e-05
5.91395e-07
1.00687e-05
6.24715e-07
9.87853e-06
6.60949e-07
9.67699e-06
6.99343e-07
9.46352e-06
7.39382e-07
9.23739e-06
7.81722e-07
8.99747e-06
8.27591e-07
8.74245e-06
8.77691e-07
8.4711e-06
9.31651e-07
8.18216e-06
9.89634e-07
7.87401e-06
1.05206e-06
7.54528e-06
1.11913e-06
7.19406e-06
1.19067e-06
6.81923e-06
1.26679e-06
6.41824e-06
1.34686e-06
5.99124e-06
1.43037e-06
5.534e-06
1.51596e-06
5.05101e-06
1.60124e-06
4.53263e-06
1.68506e-06
3.99726e-06
1.75683e-06
3.41704e-06
1.82525e-06
2.85246e-06
1.84847e-06
1.85651e-06
2.21884e-06
1.40927e-05
1.03253e-07
1.40611e-05
1.63787e-07
1.40123e-05
2.22332e-07
1.39509e-05
2.76867e-07
1.38781e-05
3.22496e-07
1.37954e-05
3.62193e-07
1.37036e-05
3.98022e-07
1.36033e-05
4.31354e-07
1.34949e-05
4.63386e-07
1.33786e-05
4.94936e-07
1.32542e-05
5.26532e-07
1.31219e-05
5.58615e-07
1.29813e-05
5.91557e-07
1.28322e-05
6.2563e-07
1.26743e-05
6.61105e-07
1.25071e-05
6.98247e-07
1.23303e-05
7.37327e-07
1.21431e-05
7.78603e-07
1.19449e-05
8.23059e-07
1.17346e-05
8.71406e-07
1.15116e-05
9.22574e-07
1.12753e-05
9.75973e-07
1.10247e-05
1.03252e-06
1.07587e-05
1.09394e-06
1.04756e-05
1.1611e-06
1.01741e-05
1.23349e-06
9.8527e-06
1.31146e-06
9.50951e-06
1.3957e-06
9.14283e-06
1.4864e-06
8.7504e-06
1.58363e-06
8.33066e-06
1.68742e-06
7.88058e-06
1.79749e-06
7.39971e-06
1.91269e-06
6.88326e-06
2.03266e-06
6.33482e-06
2.15252e-06
5.7442e-06
2.27446e-06
5.1285e-06
2.37904e-06
4.45975e-06
2.48756e-06
3.79687e-06
2.52807e-06
2.57826e-06
3.05365e-06
1.59716e-05
1.14168e-07
1.59394e-05
1.9636e-07
1.58893e-05
2.7194e-07
1.58255e-05
3.40608e-07
1.57493e-05
3.9845e-07
1.56623e-05
4.49074e-07
1.55653e-05
4.94865e-07
1.54589e-05
5.37537e-07
1.53436e-05
5.78543e-07
1.52194e-05
6.1889e-07
1.50865e-05
6.59241e-07
1.49448e-05
7.00164e-07
1.47941e-05
7.42133e-07
1.4634e-05
7.85505e-07
1.44644e-05
8.30628e-07
1.42846e-05
8.7785e-07
1.40943e-05
9.27519e-07
1.38929e-05
9.79979e-07
1.36793e-05
1.03643e-06
1.34527e-05
1.09772e-06
1.32124e-05
1.1626e-06
1.29576e-05
1.23046e-06
1.26874e-05
1.30245e-06
1.24002e-05
1.38081e-06
1.20946e-05
1.46651e-06
1.1769e-05
1.55885e-06
1.14217e-05
1.65856e-06
1.10506e-05
1.76658e-06
1.06537e-05
1.88309e-06
1.02286e-05
2.00849e-06
9.77317e-06
2.14275e-06
9.28417e-06
2.28606e-06
8.76055e-06
2.43663e-06
8.19702e-06
2.59533e-06
7.59629e-06
2.75466e-06
6.94772e-06
2.92071e-06
6.26682e-06
3.06457e-06
5.52585e-06
3.22149e-06
4.78048e-06
3.28737e-06
3.39214e-06
3.94605e-06
1.77066e-05
1.26253e-07
1.76745e-05
2.28926e-07
1.7624e-05
3.22049e-07
1.75589e-05
4.05742e-07
1.74804e-05
4.76771e-07
1.73902e-05
5.39251e-07
1.72891e-05
5.95896e-07
1.71778e-05
6.48788e-07
1.70566e-05
6.99624e-07
1.69259e-05
7.49585e-07
1.67856e-05
7.99477e-07
1.66357e-05
8.50002e-07
1.6476e-05
9.01745e-07
1.63062e-05
9.55155e-07
1.6126e-05
1.01067e-06
1.5935e-05
1.06871e-06
1.57327e-05
1.12973e-06
1.55183e-05
1.19416e-06
1.52912e-05
1.26331e-06
1.50505e-05
1.33816e-06
1.47954e-05
1.4175e-06
1.45249e-05
1.50075e-06
1.42379e-05
1.58921e-06
1.3933e-05
1.68552e-06
1.36083e-05
1.7908e-06
1.32624e-05
1.90437e-06
1.28932e-05
2.02731e-06
1.24987e-05
2.16073e-06
1.20766e-05
2.30483e-06
1.16242e-05
2.4604e-06
1.11392e-05
2.6274e-06
1.0618e-05
2.80656e-06
1.0059e-05
2.99545e-06
9.45667e-06
3.19641e-06
8.81283e-06
3.39919e-06
8.11651e-06
3.61425e-06
7.38162e-06
3.80273e-06
6.58081e-06
4.015e-06
5.7661e-06
4.1134e-06
4.28247e-06
4.85614e-06
1.93346e-05
1.38792e-07
1.93031e-05
2.60986e-07
1.92529e-05
3.71999e-07
1.91873e-05
4.71455e-07
1.91075e-05
5.56533e-07
1.9015e-05
6.31732e-07
1.89108e-05
7.00095e-07
1.87955e-05
7.64079e-07
1.86695e-05
8.25599e-07
1.8533e-05
8.85994e-07
1.83862e-05
9.4622e-07
1.8229e-05
1.00712e-06
1.80613e-05
1.0694e-06
1.78827e-05
1.1336e-06
1.7693e-05
1.20025e-06
1.74917e-05
1.26988e-06
1.72783e-05
1.34302e-06
1.7052e-05
1.42023e-06
1.68123e-05
1.50283e-06
1.65586e-05
1.59186e-06
1.62897e-05
1.68632e-06
1.60047e-05
1.78573e-06
1.57022e-05
1.89155e-06
1.5381e-05
2.0066e-06
1.50394e-05
2.13225e-06
1.46755e-05
2.26804e-06
1.42873e-05
2.41533e-06
1.38722e-05
2.57545e-06
1.34281e-05
2.7487e-06
1.29519e-05
2.93617e-06
1.24413e-05
3.13784e-06
1.18922e-05
3.35507e-06
1.13027e-05
3.58481e-06
1.0667e-05
3.83106e-06
9.98607e-06
4.08072e-06
9.24875e-06
4.34902e-06
8.46745e-06
4.58686e-06
7.61521e-06
4.86046e-06
6.74044e-06
4.99799e-06
5.23901e-06
5.76581e-06
2.08806e-05
1.51043e-07
2.08498e-05
2.92274e-07
2.08002e-05
4.21336e-07
2.07347e-05
5.37039e-07
2.06543e-05
6.36856e-07
2.05605e-05
7.25557e-07
2.04541e-05
8.0647e-07
2.03358e-05
8.82384e-07
2.0206e-05
9.55415e-07
2.00649e-05
1.02704e-06
1.99127e-05
1.09838e-06
1.97494e-05
1.17042e-06
1.95748e-05
1.24399e-06
1.93886e-05
1.31972e-06
1.91906e-05
1.39825e-06
1.89802e-05
1.48022e-06
1.8757e-05
1.56624e-06
1.85202e-05
1.657e-06
1.82692e-05
1.75381e-06
1.80033e-05
1.85771e-06
1.77216e-05
1.96801e-06
1.74227e-05
2.08441e-06
1.71056e-05
2.2085e-06
1.6769e-05
2.34314e-06
1.64114e-05
2.48988e-06
1.60307e-05
2.6487e-06
1.56248e-05
2.82111e-06
1.51912e-05
3.00891e-06
1.47273e-05
3.2125e-06
1.42298e-05
3.43339e-06
1.36961e-05
3.67143e-06
1.31221e-05
3.92868e-06
1.25055e-05
4.2015e-06
1.184e-05
4.49568e-06
1.11262e-05
4.79528e-06
1.03525e-05
5.12054e-06
9.53001e-06
5.41207e-06
8.63211e-06
5.75232e-06
7.70379e-06
5.93538e-06
6.25473e-06
6.6717e-06
2.23648e-05
1.62974e-07
2.23347e-05
3.22817e-07
2.22859e-05
4.69876e-07
2.22209e-05
6.021e-07
2.21405e-05
7.17178e-07
2.2046e-05
8.2003e-07
2.19382e-05
9.14235e-07
2.18177e-05
1.00286e-06
2.1685e-05
1.08817e-06
2.15402e-05
1.17177e-06
2.13836e-05
1.25494e-06
2.12152e-05
1.33886e-06
2.10347e-05
1.42443e-06
2.0842e-05
1.51238e-06
2.06368e-05
1.60348e-06
2.04185e-05
1.69847e-06
2.01866e-05
1.79806e-06
1.99405e-05
1.90309e-06
1.96795e-05
2.01486e-06
1.94026e-05
2.13448e-06
1.91091e-05
2.26145e-06
1.87979e-05
2.39567e-06
1.84674e-05
2.53892e-06
1.81165e-05
2.69402e-06
1.77436e-05
2.86267e-06
1.73468e-05
3.04541e-06
1.6924e-05
3.24383e-06
1.64729e-05
3.46002e-06
1.59905e-05
3.69484e-06
1.54735e-05
3.95028e-06
1.49188e-05
4.22617e-06
1.4322e-05
4.52519e-06
1.36806e-05
4.84307e-06
1.29881e-05
5.18753e-06
1.22443e-05
5.53985e-06
1.14376e-05
5.92538e-06
1.05777e-05
6.27462e-06
9.63837e-06
6.68626e-06
8.66131e-06
6.92102e-06
7.3243e-06
7.57682e-06
2.38037e-05
1.74714e-07
2.37742e-05
3.52708e-07
2.37262e-05
5.17559e-07
2.3662e-05
6.66401e-07
2.3582e-05
7.97103e-07
2.34874e-05
9.14625e-07
2.33788e-05
1.02278e-06
2.32568e-05
1.12483e-06
2.31219e-05
1.22312e-06
2.29742e-05
1.31938e-06
2.28141e-05
1.41509e-06
2.26413e-05
1.51158e-06
2.24559e-05
1.60983e-06
2.22576e-05
1.71067e-06
2.2046e-05
1.81502e-06
2.18208e-05
1.92369e-06
2.15813e-05
2.03752e-06
2.13269e-05
2.15747e-06
2.10567e-05
2.28494e-06
2.07701e-05
2.42107e-06
2.04661e-05
2.56549e-06
2.01434e-05
2.71829e-06
1.98008e-05
2.88148e-06
1.94369e-05
3.05795e-06
1.905e-05
3.24953e-06
1.86381e-05
3.45719e-06
1.81994e-05
3.68253e-06
1.77313e-05
3.928e-06
1.72313e-05
4.19488e-06
1.66957e-05
4.48572e-06
1.61214e-05
4.80061e-06
1.55035e-05
5.14288e-06
1.48391e-05
5.50768e-06
1.41215e-05
5.90459e-06
1.33501e-05
6.31214e-06
1.25129e-05
6.76095e-06
1.16187e-05
7.17159e-06
1.0641e-05
7.65897e-06
9.619e-06
7.95135e-06
8.44359e-06
8.48585e-06
2.52108e-05
1.86388e-07
2.51819e-05
3.8205e-07
2.51348e-05
5.64408e-07
2.50714e-05
7.29842e-07
2.4992e-05
8.76405e-07
2.48976e-05
1.009e-06
2.47887e-05
1.13166e-06
2.46657e-05
1.24777e-06
2.45292e-05
1.35965e-06
2.43793e-05
1.4692e-06
2.42163e-05
1.57813e-06
2.404e-05
1.68787e-06
2.38503e-05
1.79944e-06
2.36472e-05
1.91383e-06
2.34301e-05
2.03207e-06
2.31987e-05
2.15507e-06
2.29524e-05
2.2838e-06
2.26905e-05
2.41934e-06
2.24123e-05
2.56317e-06
2.21168e-05
2.71653e-06
2.18031e-05
2.87915e-06
2.14701e-05
3.05128e-06
2.11164e-05
3.23516e-06
2.07404e-05
3.43384e-06
2.03406e-05
3.6493e-06
1.9915e-05
3.88279e-06
1.94614e-05
4.13611e-06
1.89774e-05
4.41194e-06
1.84604e-05
4.71187e-06
1.79069e-05
5.03904e-06
1.73138e-05
5.39381e-06
1.66759e-05
5.78056e-06
1.599e-05
6.19383e-06
1.5249e-05
6.64513e-06
1.44518e-05
7.1102e-06
1.35861e-05
7.62516e-06
1.26598e-05
8.10062e-06
1.16464e-05
8.66792e-06
1.05824e-05
9.0235e-06
9.60946e-06
9.40357e-06
2.65979e-05
1.98011e-07
2.65693e-05
4.10982e-07
2.65229e-05
6.10618e-07
2.64603e-05
7.92591e-07
2.63816e-05
9.55175e-07
2.62874e-05
1.10317e-06
2.61784e-05
1.24072e-06
2.60548e-05
1.37132e-06
2.59171e-05
1.49731e-06
2.57656e-05
1.6207e-06
2.56002e-05
1.74349e-06
2.54209e-05
1.86711e-06
2.52277e-05
1.9926e-06
2.50204e-05
2.12117e-06
2.47985e-05
2.25393e-06
2.45617e-05
2.39189e-06
2.43093e-05
2.53616e-06
2.40407e-05
2.68792e-06
2.37551e-05
2.84879e-06
2.34515e-05
3.02008e-06
2.3129e-05
3.20162e-06
2.27865e-05
3.39379e-06
2.24225e-05
3.59911e-06
2.20355e-05
3.82079e-06
2.16238e-05
4.06098e-06
2.11854e-05
4.3212e-06
2.0718e-05
4.60348e-06
2.02191e-05
4.91075e-06
1.96861e-05
5.24486e-06
1.91156e-05
5.60948e-06
1.85042e-05
6.00517e-06
1.78471e-05
6.43749e-06
1.71406e-05
6.90051e-06
1.63773e-05
7.40783e-06
1.55557e-05
7.93249e-06
1.46632e-05
8.51615e-06
1.37067e-05
9.05956e-06
1.26596e-05
9.71065e-06
1.15563e-05
1.01343e-05
1.08194e-05
1.03342e-05
2.79756e-05
2.09548e-07
2.79473e-05
4.39637e-07
2.79013e-05
6.56435e-07
2.78391e-05
8.54927e-07
2.77606e-05
1.03367e-06
2.76665e-05
1.19731e-06
2.75572e-05
1.35005e-06
2.74331e-05
1.49546e-06
2.72945e-05
1.63597e-06
2.71415e-05
1.77371e-06
2.69742e-05
1.91082e-06
2.67924e-05
2.04881e-06
2.65962e-05
2.18878e-06
2.63852e-05
2.33213e-06
2.61591e-05
2.48001e-06
2.59174e-05
2.63354e-06
2.56596e-05
2.79397e-06
2.53849e-05
2.96259e-06
2.50926e-05
3.14114e-06
2.47816e-05
3.33104e-06
2.4451e-05
3.53219e-06
2.40997e-05
3.74513e-06
2.37262e-05
3.97261e-06
2.33289e-05
4.21804e-06
2.29061e-05
4.48377e-06
2.24557e-05
4.77156e-06
2.19754e-05
5.08371e-06
2.14628e-05
5.42342e-06
2.09148e-05
5.79282e-06
2.03282e-05
6.19607e-06
1.96995e-05
6.63392e-06
1.90238e-05
7.11299e-06
1.82973e-05
7.62714e-06
1.75126e-05
8.19195e-06
1.66677e-05
8.7781e-06
1.57496e-05
9.43258e-06
1.47644e-05
1.0047e-05
1.36852e-05
1.0785e-05
1.25447e-05
1.12818e-05
1.20706e-05
1.12814e-05
2.93526e-05
2.20948e-07
2.93245e-05
4.68094e-07
2.92787e-05
7.02037e-07
2.92165e-05
9.17084e-07
2.9138e-05
1.11214e-06
2.90436e-05
1.29168e-06
2.89338e-05
1.45989e-06
2.88089e-05
1.6204e-06
2.86691e-05
1.77577e-06
2.85146e-05
1.92825e-06
2.83453e-05
2.08006e-06
2.81613e-05
2.23283e-06
2.79624e-05
2.38772e-06
2.77482e-05
2.54632e-06
2.75184e-05
2.70983e-06
2.72724e-05
2.87948e-06
2.70097e-05
3.05667e-06
2.67295e-05
3.24277e-06
2.64309e-05
3.43964e-06
2.61132e-05
3.64881e-06
2.57751e-05
3.87027e-06
2.54155e-05
4.10468e-06
2.50331e-05
4.35501e-06
2.46262e-05
4.62493e-06
2.4193e-05
4.91696e-06
2.37314e-05
5.23315e-06
2.32391e-05
5.57601e-06
2.27134e-05
5.94911e-06
2.21514e-05
6.3548e-06
2.15496e-05
6.79781e-06
2.09046e-05
7.27904e-06
2.02113e-05
7.80617e-06
1.94658e-05
8.37286e-06
1.86606e-05
8.99668e-06
1.77933e-05
9.64621e-06
1.68507e-05
1.03736e-05
1.5838e-05
1.1062e-05
1.47284e-05
1.189e-05
1.35522e-05
1.24652e-05
1.3361e-05
1.22492e-05
3.07346e-05
2.32187e-07
3.07066e-05
4.96416e-07
3.06609e-05
7.47541e-07
3.05989e-05
9.79209e-07
3.05202e-05
1.19072e-06
3.04255e-05
1.38639e-06
3.03151e-05
1.57034e-06
3.01892e-05
1.74623e-06
3.00481e-05
1.91684e-06
2.98919e-05
2.08446e-06
2.97206e-05
2.25134e-06
2.95342e-05
2.41923e-06
2.93325e-05
2.58944e-06
2.91152e-05
2.76365e-06
2.88819e-05
2.94318e-06
2.8632e-05
3.12938e-06
2.83648e-05
3.32383e-06
2.80795e-05
3.52798e-06
2.77754e-05
3.7438e-06
2.74513e-05
3.97289e-06
2.71062e-05
4.21533e-06
2.6739e-05
4.47189e-06
2.63482e-05
4.74579e-06
2.59322e-05
5.0409e-06
2.54892e-05
5.35998e-06
2.5017e-05
5.70532e-06
2.45133e-05
6.07972e-06
2.39753e-05
6.48708e-06
2.34001e-05
6.93003e-06
2.2784e-05
7.41383e-06
2.21235e-05
7.9396e-06
2.14136e-05
8.51601e-06
2.06501e-05
9.13658e-06
1.98255e-05
9.82089e-06
1.89369e-05
1.05356e-05
1.79712e-05
1.1338e-05
1.69325e-05
1.21032e-05
1.57942e-05
1.30242e-05
1.45838e-05
1.3683e-05
1.46901e-05
1.32426e-05
3.21264e-05
2.43331e-07
3.20985e-05
5.24655e-07
3.20529e-05
7.92992e-07
3.19908e-05
1.04134e-06
3.19121e-05
1.26944e-06
3.1817e-05
1.48142e-06
3.1706e-05
1.68139e-06
3.15792e-05
1.87301e-06
3.14368e-05
2.05921e-06
3.12789e-05
2.24235e-06
3.11056e-05
2.42468e-06
3.09167e-05
2.60807e-06
3.07121e-05
2.79402e-06
3.04916e-05
2.98421e-06
3.02547e-05
3.1801e-06
3.00009e-05
3.38319e-06
2.97295e-05
3.59522e-06
2.94396e-05
3.81786e-06
2.91302e-05
4.0532e-06
2.88002e-05
4.30286e-06
2.84486e-05
4.56694e-06
2.80742e-05
4.84634e-06
2.76755e-05
5.14446e-06
2.72509e-05
5.46547e-06
2.67986e-05
5.81229e-06
2.63164e-05
6.18755e-06
2.58018e-05
6.59427e-06
2.52522e-05
7.03672e-06
2.46644e-05
7.51783e-06
2.40348e-05
8.04341e-06
2.33597e-05
8.6148e-06
2.26339e-05
9.24164e-06
2.18533e-05
9.91736e-06
2.10103e-05
1.06635e-05
2.01016e-05
1.14452e-05
1.9114e-05
1.23243e-05
1.80508e-05
1.3169e-05
1.68855e-05
1.41854e-05
1.56431e-05
1.49327e-05
1.60561e-05
1.42657e-05
3.35322e-05
2.54443e-07
3.35043e-05
5.52869e-07
3.34587e-05
8.3845e-07
3.33966e-05
1.10354e-06
3.33176e-05
1.34835e-06
3.32222e-05
1.57682e-06
3.31106e-05
1.79305e-06
3.29829e-05
2.00071e-06
3.28393e-05
2.20282e-06
3.26798e-05
2.40182e-06
3.25045e-05
2.6e-06
3.23132e-05
2.79932e-06
3.21059e-05
3.00142e-06
3.18821e-05
3.208e-06
3.16415e-05
3.42065e-06
3.13837e-05
3.641e-06
3.11081e-05
3.87089e-06
3.08136e-05
4.11229e-06
3.04993e-05
4.36756e-06
3.01638e-05
4.63837e-06
2.9806e-05
4.92474e-06
2.94247e-05
5.22762e-06
2.90185e-05
5.55063e-06
2.85858e-05
5.8982e-06
2.81246e-05
6.27348e-06
2.76328e-05
6.67936e-06
2.71079e-05
7.11915e-06
2.65471e-05
7.59749e-06
2.59473e-05
8.11762e-06
2.53048e-05
8.68589e-06
2.46158e-05
9.30391e-06
2.3875e-05
9.98228e-06
2.30782e-05
1.07144e-05
2.22177e-05
1.15237e-05
2.12899e-05
1.23737e-05
2.02816e-05
1.33312e-05
1.91952e-05
1.42578e-05
1.80046e-05
1.5372e-05
1.67322e-05
1.62123e-05
1.74559e-05
1.53209e-05
3.49556e-05
2.65576e-07
3.49277e-05
5.8112e-07
3.4882e-05
8.83985e-07
3.48197e-05
1.16588e-06
3.47405e-05
1.42751e-06
3.46447e-05
1.67264e-06
3.45324e-05
1.90535e-06
3.44038e-05
2.12932e-06
3.4259e-05
2.34764e-06
3.4098e-05
2.56284e-06
3.39207e-05
2.77723e-06
3.37272e-05
2.99288e-06
3.35171e-05
3.21153e-06
3.32901e-05
3.43493e-06
3.3046e-05
3.66478e-06
3.27842e-05
3.9028e-06
3.25041e-05
4.15093e-06
3.22051e-05
4.41132e-06
3.1886e-05
4.68676e-06
3.15451e-05
4.97917e-06
3.11814e-05
5.28844e-06
3.07936e-05
5.61542e-06
3.03803e-05
5.96397e-06
2.99398e-05
6.33875e-06
2.94701e-05
6.74314e-06
2.89691e-05
7.18035e-06
2.84343e-05
7.65395e-06
2.78628e-05
8.16894e-06
2.72516e-05
8.7289e-06
2.65967e-05
9.34073e-06
2.58944e-05
1.00063e-05
2.51393e-05
1.07373e-05
2.4327e-05
1.15268e-05
2.34498e-05
1.24005e-05
2.25039e-05
1.33204e-05
2.14759e-05
1.43578e-05
2.03677e-05
1.53685e-05
1.91531e-05
1.65823e-05
1.78529e-05
1.75198e-05
1.88873e-05
1.64096e-05
3.63999e-05
2.76791e-07
3.63718e-05
6.09465e-07
3.63259e-05
9.29662e-07
3.62635e-05
1.22844e-06
3.61839e-05
1.50701e-06
3.60876e-05
1.76895e-06
3.59746e-05
2.01834e-06
3.58451e-05
2.25888e-06
3.5699e-05
2.49369e-06
3.55365e-05
2.72539e-06
3.53574e-05
2.95635e-06
3.51615e-05
3.18869e-06
3.49488e-05
3.42426e-06
3.47188e-05
3.6649e-06
3.44712e-05
3.91238e-06
3.42055e-05
4.16852e-06
3.39211e-05
4.43532e-06
3.36173e-05
4.71506e-06
3.32933e-05
5.01082e-06
3.29473e-05
5.32515e-06
3.25779e-05
5.65784e-06
3.21838e-05
6.0095e-06
3.17636e-05
6.38418e-06
3.13156e-05
6.7868e-06
3.08378e-05
7.22097e-06
3.03279e-05
7.69017e-06
2.97836e-05
8.19827e-06
2.92019e-05
8.75065e-06
2.85796e-05
9.35122e-06
2.79128e-05
1.00074e-05
2.71977e-05
1.07215e-05
2.64289e-05
1.1506e-05
2.56018e-05
1.23541e-05
2.47086e-05
1.32933e-05
2.37454e-05
1.42845e-05
2.26988e-05
1.5403e-05
2.15699e-05
1.64998e-05
2.03327e-05
1.78154e-05
1.90063e-05
1.88534e-05
2.03485e-05
1.75333e-05
3.78676e-05
2.88132e-07
3.78395e-05
6.37961e-07
3.77934e-05
9.7555e-07
3.77306e-05
1.2913e-06
3.76507e-05
1.58693e-06
3.75538e-05
1.86582e-06
3.74401e-05
2.1321e-06
3.73095e-05
2.38942e-06
3.71622e-05
2.641e-06
3.69981e-05
2.8895e-06
3.68171e-05
3.13734e-06
3.66191e-05
3.38672e-06
3.64037e-05
3.63959e-06
3.61708e-05
3.89784e-06
3.59198e-05
4.16337e-06
3.56503e-05
4.43806e-06
3.53616e-05
4.724e-06
3.50531e-05
5.02352e-06
3.47241e-05
5.33986e-06
3.4373e-05
5.6763e-06
3.3998e-05
6.03281e-06
3.35978e-05
6.40968e-06
3.31709e-05
6.81106e-06
3.27156e-05
7.24211e-06
3.22299e-05
7.70666e-06
3.17116e-05
8.20851e-06
3.11581e-05
8.7518e-06
3.05664e-05
9.34228e-06
2.99335e-05
9.9842e-06
2.92552e-05
1.06856e-05
2.85278e-05
1.1449e-05
2.77458e-05
1.22879e-05
2.69045e-05
1.31956e-05
2.5996e-05
1.42014e-05
2.50163e-05
1.5265e-05
2.39518e-05
1.64661e-05
2.28033e-05
1.76508e-05
2.15447e-05
1.90698e-05
2.01939e-05
2.02116e-05
2.18374e-05
1.86929e-05
3.93617e-05
2.99609e-07
3.93333e-05
6.66655e-07
3.9287e-05
1.02171e-06
3.92238e-05
1.35452e-06
3.91434e-05
1.66733e-06
3.90459e-05
1.96333e-06
3.89313e-05
2.24667e-06
3.87997e-05
2.52103e-06
3.86511e-05
2.78961e-06
3.84854e-05
3.05519e-06
3.83025e-05
3.32022e-06
3.81023e-05
3.58698e-06
3.78844e-05
3.85748e-06
3.76485e-05
4.13373e-06
3.73942e-05
4.41768e-06
3.71209e-05
4.71133e-06
3.6828e-05
5.01685e-06
3.65149e-05
5.33664e-06
3.61809e-05
5.67393e-06
3.58245e-05
6.03265e-06
3.5444e-05
6.41328e-06
3.50379e-05
6.81582e-06
3.46045e-05
7.24445e-06
3.41421e-05
7.70448e-06
3.36488e-05
8.20002e-06
3.31221e-05
8.73513e-06
3.25597e-05
9.31424e-06
3.19584e-05
9.94351e-06
3.13152e-05
1.06275e-05
3.06259e-05
1.13748e-05
2.98866e-05
1.21884e-05
2.90918e-05
1.30826e-05
2.82369e-05
1.40508e-05
2.73137e-05
1.51241e-05
2.63181e-05
1.62614e-05
2.52366e-05
1.75462e-05
2.40694e-05
1.88204e-05
2.27905e-05
2.03444e-05
2.14167e-05
2.15928e-05
2.33522e-05
1.98898e-05
4.08844e-05
3.11222e-07
4.08558e-05
6.95593e-07
4.08091e-05
1.06821e-06
4.07455e-05
1.41819e-06
4.06645e-05
1.74831e-06
4.05663e-05
2.06157e-06
4.04508e-05
2.36216e-06
4.03181e-05
2.65374e-06
4.01681e-05
2.93959e-06
4.00008e-05
3.2225e-06
3.9816e-05
3.50503e-06
3.96135e-05
3.78947e-06
3.9393e-05
4.07795e-06
3.91542e-05
4.37255e-06
3.88966e-05
4.6753e-06
3.86196e-05
4.9883e-06
3.83226e-05
5.31382e-06
3.80049e-05
5.65433e-06
3.76658e-05
6.01304e-06
3.73042e-05
6.39428e-06
3.69182e-05
6.79923e-06
3.65062e-05
7.22788e-06
3.60664e-05
7.68423e-06
3.55971e-05
8.17379e-06
3.50963e-05
8.70087e-06
3.45616e-05
9.26982e-06
3.39904e-05
9.88538e-06
3.33799e-05
1.05541e-05
3.27266e-05
1.12808e-05
3.20266e-05
1.20748e-05
3.12757e-05
1.29393e-05
3.04686e-05
1.38896e-05
2.96005e-05
1.49192e-05
2.86632e-05
1.6061e-05
2.76524e-05
1.7273e-05
2.65545e-05
1.86427e-05
2.53696e-05
2.00079e-05
2.40715e-05
2.16383e-05
2.26761e-05
2.29956e-05
2.48911e-05
2.11248e-05
4.2438e-05
3.22999e-07
4.24091e-05
7.24817e-07
4.2362e-05
1.11511e-06
4.22979e-05
1.48238e-06
4.22162e-05
1.82993e-06
4.21172e-05
2.16061e-06
4.20007e-05
2.47864e-06
4.18668e-05
2.78765e-06
4.17154e-05
3.09099e-06
4.15464e-05
3.39151e-06
4.13597e-05
3.69179e-06
4.11549e-05
3.99423e-06
4.09319e-05
4.30102e-06
4.06901e-05
4.61431e-06
4.04292e-05
4.93622e-06
4.01485e-05
5.26896e-06
3.98475e-05
5.61488e-06
3.95252e-05
5.97654e-06
3.91811e-05
6.35717e-06
3.88142e-05
6.76122e-06
3.84227e-05
7.1907e-06
3.80048e-05
7.64583e-06
3.75587e-05
8.13034e-06
3.70825e-05
8.64992e-06
3.65744e-05
9.20906e-06
3.60317e-05
9.81241e-06
3.54521e-05
1.0465e-05
3.48324e-05
1.11738e-05
3.41694e-05
1.19439e-05
3.34589e-05
1.27853e-05
3.26969e-05
1.37014e-05
3.18778e-05
1.47085e-05
3.09969e-05
1.58003e-05
3.0046e-05
1.70115e-05
2.90206e-05
1.82992e-05
2.79071e-05
1.97547e-05
2.67052e-05
2.12123e-05
2.53888e-05
2.29503e-05
2.39731e-05
2.4419e-05
2.64524e-05
2.23992e-05
4.40246e-05
3.34973e-07
4.39954e-05
7.5437e-07
4.39478e-05
1.16245e-06
4.38831e-05
1.54715e-06
4.38007e-05
1.91229e-06
4.37008e-05
2.26055e-06
4.35833e-05
2.59618e-06
4.34481e-05
2.92284e-06
4.32952e-05
3.24389e-06
4.31245e-05
3.56226e-06
4.29357e-05
3.88058e-06
4.27286e-05
4.20131e-06
4.25029e-05
4.52671e-06
4.22582e-05
4.85902e-06
4.19939e-05
5.20045e-06
4.17096e-05
5.5533e-06
4.14045e-05
5.92e-06
4.10778e-05
6.30324e-06
4.07287e-05
6.70626e-06
4.03564e-05
7.13349e-06
3.99594e-05
7.58772e-06
3.95356e-05
8.06968e-06
3.90832e-05
8.58277e-06
3.86003e-05
9.13281e-06
3.80848e-05
9.72451e-06
3.75344e-05
1.03628e-05
3.69464e-05
1.1053e-05
3.63178e-05
1.18023e-05
3.56452e-05
1.26166e-05
3.49245e-05
1.35059e-05
3.41516e-05
1.44743e-05
3.33209e-05
1.55391e-05
3.24277e-05
1.66939e-05
3.14635e-05
1.79752e-05
3.0424e-05
1.93395e-05
2.92955e-05
2.08818e-05
2.80775e-05
2.24328e-05
2.67438e-05
2.42797e-05
2.53089e-05
2.58616e-05
2.80348e-05
2.37138e-05
4.56463e-05
3.47172e-07
4.56166e-05
7.84287e-07
4.55686e-05
1.2103e-06
4.55033e-05
1.61257e-06
4.54201e-05
1.99546e-06
4.53192e-05
2.36145e-06
4.52005e-05
2.71488e-06
4.50639e-05
3.05939e-06
4.49095e-05
3.39837e-06
4.47369e-05
3.73483e-06
4.4546e-05
4.07145e-06
4.43365e-05
4.41075e-06
4.41082e-05
4.75508e-06
4.38605e-05
5.10674e-06
4.35929e-05
5.46803e-06
4.33048e-05
5.84135e-06
4.29956e-05
6.2292e-06
4.26645e-05
6.63442e-06
4.23104e-05
7.06028e-06
4.19328e-05
7.51109e-06
4.15302e-05
7.99037e-06
4.11004e-05
8.49946e-06
4.06417e-05
9.04151e-06
4.01521e-05
9.62244e-06
3.96294e-05
1.02472e-05
3.90713e-05
1.09209e-05
3.84751e-05
1.16492e-05
3.78377e-05
1.24398e-05
3.71557e-05
1.32986e-05
3.6425e-05
1.42366e-05
3.56415e-05
1.5258e-05
3.47994e-05
1.6381e-05
3.38941e-05
1.75995e-05
3.29172e-05
1.89516e-05
3.18642e-05
2.03934e-05
3.07212e-05
2.20232e-05
2.94878e-05
2.36689e-05
2.81375e-05
2.56254e-05
2.66846e-05
2.73224e-05
2.96367e-05
2.50698e-05
4.73049e-05
3.59619e-07
4.72749e-05
8.14606e-07
4.72263e-05
1.25871e-06
4.71603e-05
1.6787e-06
4.70762e-05
2.07951e-06
4.69742e-05
2.46342e-06
4.68543e-05
2.83482e-06
4.67163e-05
3.19738e-06
4.65601e-05
3.55453e-06
4.63857e-05
3.90932e-06
4.61926e-05
4.2645e-06
4.59807e-05
4.62265e-06
4.57496e-05
4.9862e-06
4.54988e-05
5.35751e-06
4.52278e-05
5.73899e-06
4.49361e-05
6.13312e-06
4.46227e-05
6.54252e-06
4.42871e-05
6.97009e-06
4.39281e-05
7.41924e-06
4.35452e-05
7.89404e-06
4.31369e-05
8.3987e-06
4.27011e-05
8.93521e-06
4.2236e-05
9.50659e-06
4.17396e-05
1.01188e-05
4.12098e-05
1.0777e-05
4.0644e-05
1.14866e-05
4.00397e-05
1.22536e-05
3.93936e-05
1.30859e-05
3.87023e-05
1.39899e-05
3.79618e-05
1.49771e-05
3.71679e-05
1.6052e-05
3.63148e-05
1.72339e-05
3.53977e-05
1.85168e-05
3.44084e-05
1.99405e-05
3.33422e-05
2.14604e-05
3.21854e-05
2.31786e-05
3.09372e-05
2.49199e-05
2.95712e-05
2.69868e-05
2.81013e-05
2.88002e-05
3.12567e-05
2.64681e-05
4.90025e-05
3.72317e-07
4.89721e-05
8.45358e-07
4.89229e-05
1.30772e-06
4.8856e-05
1.74562e-06
4.8771e-05
2.16452e-06
4.86679e-05
2.56653e-06
4.85466e-05
2.9561e-06
4.84071e-05
3.33692e-06
4.82491e-05
3.71245e-06
4.80726e-05
4.08581e-06
4.78773e-05
4.45981e-06
4.76629e-05
4.83708e-06
4.7429e-05
5.22013e-06
4.71751e-05
5.6114e-06
4.69007e-05
6.0134e-06
4.66051e-05
6.42868e-06
4.62877e-05
6.85998e-06
4.59475e-05
7.31029e-06
4.55836e-05
7.78312e-06
4.51952e-05
8.2824e-06
4.47811e-05
8.81277e-06
4.43394e-05
9.37698e-06
4.38679e-05
9.97804e-06
4.33648e-05
1.0622e-05
4.28277e-05
1.13141e-05
4.22543e-05
1.206e-05
4.16418e-05
1.28661e-05
4.09871e-05
1.37406e-05
4.02867e-05
1.46903e-05
3.95365e-05
1.57272e-05
3.87322e-05
1.68563e-05
3.78683e-05
1.80976e-05
3.69398e-05
1.94455e-05
3.59385e-05
2.09414e-05
3.48596e-05
2.25402e-05
3.36894e-05
2.43472e-05
3.2427e-05
2.61849e-05
3.10461e-05
2.8363e-05
2.95601e-05
3.02944e-05
3.28935e-05
2.79099e-05
5.07408e-05
3.85274e-07
5.07099e-05
8.76574e-07
5.06601e-05
1.35737e-06
5.05924e-05
1.81338e-06
5.05064e-05
2.25056e-06
5.0402e-05
2.67087e-06
5.02793e-05
3.07881e-06
5.01381e-05
3.47809e-06
4.99784e-05
3.87224e-06
4.97998e-05
4.2644e-06
4.96021e-05
4.65747e-06
4.93851e-05
5.05412e-06
4.91482e-05
5.45696e-06
4.88911e-05
5.86851e-06
4.86132e-05
6.29133e-06
4.83138e-05
6.7281e-06
4.79921e-05
7.18165e-06
4.76474e-05
7.65506e-06
4.72785e-05
8.15198e-06
4.68847e-05
8.67622e-06
4.64648e-05
9.23265e-06
4.60169e-05
9.82482e-06
4.5539e-05