/*--------------------------------*- C++ -*----------------------------------*\
| =========                 |                                                 |
| \\      /  F ield         | OpenFOAM: The Open Source CFD Toolbox           |
|  \\    /   O peration     | Version:  2506                                  |
|   \\  /    A nd           | Website:  www.openfoam.com                      |
|    \\/     M anipulation  |                                                 |
\*---------------------------------------------------------------------------*/
FoamFile
{
    version     2.0;
    format      ascii;
    arch        "LSB;label=32;scalar=64";
    class       volScalarField;
    location    "6000";
    object      R;
}
// * * * * * * * * * * * * * * * * * * * * * * * * * * * * * * * * * * * * * //

dimensions      [0 2 -3 0 0 0 0];

internalField   nonuniform List<scalar> 
72100
(
-1.46976e-11
-1.63887e-12
8.77475e-12
6.31883e-12
-2.2973e-11
3.22173e-12
-1.2356e-11
-1.19346e-11
-8.83314e-12
-3.63599e-12
-9.46549e-12
-1.37385e-11
-1.03739e-11
-1.33593e-11
-4.63851e-13
-1.55638e-11
-1.07492e-11
4.9771e-12
-4.72544e-12
-1.93785e-11
-1.62158e-11
-1.51873e-11
-1.00546e-11
-8.59355e-12
-1.57579e-11
-1.65787e-11
-1.0464e-11
-1.34369e-11
-1.16784e-11
-1.02268e-12
-9.30991e-12
-8.67034e-12
-1.0322e-11
-3.82765e-12
-2.88092e-12
-1.92808e-12
-3.80436e-12
4.18139e-13
-2.15634e-12
9.97894e-13
-1.70134e-11
-6.68669e-12
-2.24212e-12
-3.87901e-12
-8.39101e-13
-3.67623e-12
-8.10467e-12
-6.94488e-12
-6.78208e-12
-7.61957e-12
-8.07689e-12
-7.7003e-12
-8.74593e-12
-1.15645e-11
-1.23e-11
-1.27144e-11
-6.8134e-12
-1.49596e-11
-1.49603e-11
-1.20175e-11
-1.40309e-11
-1.52155e-11
-1.30982e-11
-1.77486e-11
-1.35481e-11
-1.42214e-11
-1.57543e-11
-1.4215e-11
-1.58377e-11
-1.54281e-11
-1.89007e-11
-1.74442e-11
-2.05255e-11
-1.1552e-11
-1.70075e-11
-1.2028e-11
-1.78321e-11
-5.1271e-12
-2.33479e-11
7.84982e-12
-1.43333e-11
-2.24647e-11
1.24691e-11
-2.48294e-11
-2.23726e-11
-1.79623e-11
6.1206e-12
-8.48668e-13
-4.1256e-13
-1.18861e-11
-1.34892e-11
-1.09979e-11
-1.82784e-11
5.16824e-12
-3.09968e-12
3.14235e-12
-1.30723e-11
-4.10921e-12
-4.63357e-12
-3.89379e-12
2.16282e-12
1.69487e-12
-1.09892e-11
-1.34082e-12
-1.88365e-11
-3.35604e-12
-1.51558e-11
-2.16923e-11
-9.40066e-12
-1.84706e-11
-1.64444e-11
-1.35472e-11
-1.04152e-11
-1.10358e-11
-3.11245e-11
1.02305e-11
-4.95517e-11
4.29575e-11
-9.54708e-11
1.06136e-10
9.22344e-11
-7.35383e-11
2.80491e-11
-4.35623e-11
-1.92435e-11
4.24901e-11
1.79119e-11
2.4515e-11
1.81727e-12
4.45171e-11
3.18288e-11
-1.38389e-11
4.00823e-12
3.51621e-11
3.484e-11
4.7801e-11
2.86747e-11
3.5746e-11
5.98407e-11
1.73343e-11
3.7299e-11
2.71439e-11
4.79072e-12
9.37992e-12
3.29509e-11
2.24217e-11
5.84108e-11
1.67682e-11
1.87632e-11
6.57412e-11
3.0831e-11
8.53981e-11
-1.5006e-12
7.08208e-11
-7.98247e-12
1.26584e-10
-9.69829e-11
2.48457e-10
-2.81484e-10
4.80096e-10
-5.72428e-11
-7.86829e-11
5.77176e-11
6.52375e-11
2.37876e-11
-1.31805e-10
-1.03388e-10
-4.39119e-11
-2.26305e-11
-1.01524e-10
-4.14175e-11
2.22743e-11
4.618e-11
-6.05415e-11
-1.112e-10
-1.09019e-10
-4.44314e-11
-8.2858e-11
-4.40662e-11
4.20068e-11
-1.16163e-10
-1.64639e-11
-1.59261e-11
6.79299e-11
-5.54319e-11
-3.60661e-11
-5.45607e-11
8.24214e-11
2.81912e-11
-6.97377e-11
6.66931e-12
-1.99951e-11
2.33869e-11
9.95369e-11
-7.69003e-11
2.23056e-10
-2.59968e-10
5.61562e-10
-6.67778e-10
1.1603e-09
-1.27337e-10
-2.33946e-10
-1.56726e-10
-1.58741e-10
-1.25207e-10
-6.68362e-11
-6.67274e-11
-3.08061e-10
-1.22406e-10
-9.90496e-11
-2.21724e-10
-1.66844e-10
-2.50134e-10
-1.70802e-10
-8.7687e-11
-9.16533e-11
-1.01071e-10
-1.09029e-10
-3.19681e-10
-2.4161e-10
-6.17291e-11
-1.62756e-10
-1.39933e-10
-3.04351e-10
-1.43523e-10
-1.86089e-10
-2.15663e-10
-3.16287e-10
-2.83283e-10
-1.66462e-10
-3.12778e-10
-2.25455e-10
-2.97146e-10
-1.49699e-10
-3.70217e-10
1.35683e-10
-5.80964e-10
6.06021e-10
-1.33551e-09
1.79481e-09
-8.93792e-11
-1.97483e-10
2.46056e-10
-2.56761e-10
-2.65162e-11
-1.04523e-10
-1.41458e-10
1.73921e-10
-2.42148e-11
-1.59685e-10
-1.86737e-11
-1.08884e-10
-2.06207e-11
-1.25504e-10
6.83886e-11
-5.45437e-11
-1.95284e-10
-2.82354e-11
8.48036e-11
-2.86014e-10
-2.72225e-10
-1.54267e-10
-8.34739e-11
-1.35513e-10
-1.16458e-10
-1.21237e-10
-2.92027e-10
-1.43455e-10
-1.84277e-10
-2.82856e-10
-2.29101e-10
-2.26956e-10
-4.44774e-10
-1.77359e-10
-6.67976e-10
-1.03464e-10
-1.06296e-09
5.72931e-10
-1.86144e-09
2.02366e-09
5.55956e-10
-4.11245e-10
5.66682e-10
9.39394e-11
1.97411e-10
2.28499e-11
1.67057e-10
2.60106e-10
3.88447e-11
-8.45088e-12
1.12042e-10
2.44078e-10
6.1143e-11
2.65907e-10
-1.56451e-10
1.38031e-11
-4.06533e-11
-6.82161e-11
3.72502e-11
1.68666e-10
2.24541e-10
-5.12871e-11
-1.58135e-11
1.25034e-10
-8.89863e-11
3.51156e-11
2.25057e-10
-1.2813e-10
-1.21074e-10
8.88271e-11
-1.55654e-10
-6.31606e-11
-5.81803e-11
4.58226e-12
-4.5869e-10
2.95668e-10
-1.04418e-09
1.01425e-09
-2.38678e-09
2.5768e-09
6.73542e-10
-4.19871e-10
3.07471e-10
-1.01001e-10
1.47039e-11
-3.79987e-11
-1.04428e-10
1.45062e-11
-6.29081e-11
3.58407e-10
1.88807e-10
2.41228e-11
6.21211e-11
8.22413e-11
2.21633e-10
2.53751e-10
1.20807e-10
1.59027e-10
1.75004e-11
5.99321e-11
1.0591e-10
5.10139e-11
9.42369e-11
8.55786e-11
1.71305e-10
2.65285e-10
4.48594e-12
2.5236e-10
-7.10016e-11
-3.90804e-11
6.69768e-11
1.35231e-10
-2.45996e-10
4.08455e-10
-2.42776e-10
9.59955e-10
-9.23006e-10
1.75583e-09
-2.60805e-09
3.91495e-09
2.21106e-10
-5.72136e-10
3.39091e-10
-2.62982e-10
-3.84929e-11
5.89957e-11
1.07757e-10
-2.77121e-10
1.31574e-10
-1.12502e-10
-6.20833e-11
-1.56062e-10
7.61461e-11
1.11535e-10
-2.14184e-11
8.46925e-11
1.5762e-10
2.24156e-10
1.47681e-10
3.97029e-11
1.71204e-10
-1.70331e-10
4.95026e-11
-5.73426e-11
2.53571e-10
-2.29825e-10
7.29699e-11
2.25902e-10
3.73438e-10
2.3838e-10
2.0387e-10
2.98435e-10
1.13793e-10
3.79896e-10
-3.89888e-10
1.05596e-09
-1.2592e-09
2.61017e-09
-3.36126e-09
5.14737e-09
5.58165e-10
-5.78994e-10
-3.05725e-10
-9.19833e-10
1.60646e-11
-4.93182e-10
2.48564e-10
-1.77872e-10
1.05151e-10
-1.26487e-11
4.72046e-11
1.5656e-10
2.59965e-11
-8.04246e-11
-1.1013e-10
-8.49703e-11
3.25102e-11
-1.91353e-10
-1.17267e-10
2.42044e-10
3.16949e-11
3.51741e-10
-2.37785e-11
1.15935e-10
-3.82872e-10
2.18263e-10
-1.29952e-10
5.52297e-11
1.45749e-10
1.25278e-10
-1.09067e-10
3.41713e-10
-2.76688e-10
4.89345e-10
-5.57411e-10
9.07845e-10
-1.5543e-09
2.84892e-09
-3.93e-09
6.60038e-09
-1.27013e-10
-1.48298e-09
2.38349e-09
1.90783e-09
1.23146e-09
8.76884e-10
-9.52692e-11
1.23557e-09
-8.73266e-10
1.51483e-10
9.91066e-10
6.79752e-10
-3.6007e-10
-6.57655e-11
9.46032e-12
-5.95887e-10
3.1935e-10
-8.12819e-10
6.03221e-10
6.58664e-10
-5.48302e-10
-2.51861e-10
3.29709e-10
5.06367e-10
2.69806e-10
-1.43668e-11
-8.08129e-11
-1.75676e-10
-3.89137e-10
-2.18114e-10
-1.86994e-10
3.14211e-11
-2.65493e-10
5.01072e-10
-5.80728e-10
1.15956e-09
-1.82796e-09
2.96266e-09
-4.81255e-09
7.56236e-09
2.47804e-10
1.93474e-09
-2.04027e-09
-1.0851e-09
-1.00191e-09
9.10681e-10
-8.99547e-10
-8.80759e-10
1.26841e-09
-9.82199e-10
-1.34869e-09
-2.16642e-09
1.76225e-09
1.13321e-10
1.38947e-10
1.61008e-09
-1.3261e-09
1.56535e-09
-1.3428e-09
-2.26916e-09
7.36386e-10
7.56853e-10
5.28023e-10
-1.27598e-10
8.91004e-10
1.52881e-10
5.60662e-11
4.61148e-12
8.34092e-11
-4.43087e-12
-7.86817e-11
2.70581e-10
-1.4203e-10
3.44221e-10
-1.14747e-09
1.14832e-09
-2.40391e-09
3.41189e-09
-5.98957e-09
8.49561e-09
4.38002e-10
-1.96573e-09
1.16323e-09
-1.42659e-09
-1.1385e-09
-3.3591e-09
6.89778e-10
-8.99164e-11
-7.0609e-10
3.69519e-10
-9.95914e-10
3.67325e-09
-2.34919e-09
5.89522e-10
-9.50517e-11
-1.7689e-09
2.54661e-09
-6.99956e-10
1.50007e-09
3.32286e-09
-2.09276e-10
-7.5566e-10
-2.44615e-09
-7.58735e-10
-1.36411e-09
3.59937e-10
1.10878e-09
2.37241e-10
-1.25941e-09
1.12083e-09
-5.98581e-10
-7.53802e-10
-1.32226e-09
5.60195e-10
-7.94218e-10
1.27284e-09
-2.72339e-09
3.66235e-09
-6.93602e-09
9.5278e-09
-2.88419e-10
-2.1945e-09
1.27988e-09
2.23398e-09
8.3969e-10
2.32685e-09
8.85512e-10
-6.86419e-11
2.67484e-09
3.75886e-10
8.60732e-10
-2.0409e-09
2.0269e-09
-2.13486e-09
5.02802e-10
-2.48547e-10
-1.54682e-09
7.95451e-10
-2.32564e-09
-1.23166e-09
-5.9986e-10
1.00519e-09
1.82362e-09
-4.97518e-10
1.09884e-09
-9.3598e-10
-2.46975e-09
4.29993e-10
2.45621e-09
-1.76851e-09
1.32591e-09
1.53366e-09
9.98697e-10
-3.76537e-10
-1.01389e-09
2.10243e-09
-3.04441e-09
4.25823e-09
-8.31261e-09
1.00304e-08
1.3252e-09
1.12826e-09
1.1619e-09
-4.40153e-09
9.17799e-10
1.01842e-09
-2.39977e-09
5.28661e-10
-3.78079e-09
1.99074e-09
2.06374e-09
-5.65505e-10
-2.30798e-09
3.5022e-09
-2.24622e-09
2.21137e-09
1.37215e-10
4.53997e-10
2.24952e-09
-1.46978e-09
-1.35985e-10
-2.41538e-09
-2.20412e-10
1.06337e-09
-6.85739e-10
-4.33494e-10
2.64251e-09
7.08337e-11
-1.92576e-09
-9.23044e-11
-1.22229e-09
1.25757e-09
-2.62178e-10
2.67544e-09
-1.31901e-09
1.38388e-09
-2.47042e-09
5.55661e-09
-1.02725e-08
1.38236e-08
-1.4037e-09
5.07299e-10
-1.81304e-09
5.86336e-09
-3.53804e-10
-9.87488e-11
1.06564e-09
3.84058e-10
2.94618e-09
-3.92765e-09
-1.85674e-09
1.12822e-11
2.98302e-09
-1.85619e-09
4.54665e-09
-7.6758e-10
-6.29026e-10
-1.23035e-09
-2.9995e-10
6.01778e-10
1.29783e-09
3.57687e-09
2.88788e-10
1.69485e-09
1.52563e-10
8.4538e-10
-1.70211e-09
-2.64782e-09
2.02031e-09
2.67855e-09
6.82266e-10
-3.33232e-09
-8.26897e-10
-3.81192e-10
-1.72237e-10
4.14318e-09
-5.13248e-09
8.46662e-09
-9.84838e-09
1.87948e-08
1.60838e-09
-2.51362e-09
-1.89571e-10
-5.72341e-09
-1.6222e-09
5.19966e-10
1.80134e-09
-2.96482e-09
-4.51449e-09
3.82096e-09
-1.48041e-09
-8.55889e-10
-1.58549e-09
-2.08485e-09
-5.39362e-09
-1.82979e-09
-1.24537e-09
-7.83664e-10
-1.01236e-09
9.17724e-10
2.16026e-10
-3.92657e-09
-2.39937e-10
-2.91588e-09
-2.23917e-09
4.07594e-10
-6.59843e-11
4.47827e-09
-2.31117e-09
-2.15379e-09
-1.82362e-09
4.30655e-09
-9.6513e-11
2.76953e-10
-3.49017e-09
1.30822e-09
-3.09479e-09
3.43723e-09
-1.18669e-08
1.72759e-08
-4.10714e-09
2.98305e-09
2.22728e-09
3.18923e-09
3.41796e-09
-2.08881e-09
-6.92544e-10
4.31269e-10
4.02675e-09
-1.17121e-09
1.52092e-09
1.60249e-09
-9.46819e-10
2.70466e-09
3.67454e-09
2.83284e-09
2.05579e-09
2.50719e-09
-1.89178e-10
-3.43432e-09
-6.33482e-10
1.43114e-09
5.66774e-10
-1.02547e-09
3.34593e-09
-5.90617e-10
3.6159e-10
-3.64843e-09
-1.89351e-10
1.24004e-10
1.39626e-09
-2.95792e-09
-2.04826e-10
1.69025e-10
5.98247e-10
2.04571e-09
-3.28638e-09
8.60595e-09
-1.00834e-08
1.75596e-08
3.02688e-09
-1.43845e-09
1.72504e-09
4.01633e-10
-4.04054e-09
6.37953e-10
3.00465e-10
1.75515e-09
-2.43653e-10
-2.66543e-09
-3.47619e-10
-1.2033e-09
-1.15382e-09
1.09612e-10
1.329e-09
-2.98533e-09
-1.36402e-09
3.09612e-10
3.0624e-09
2.34353e-09
2.08534e-09
1.47211e-09
8.57492e-10
3.12606e-09
-3.70622e-09
1.87825e-09
9.41642e-10
4.34581e-10
2.52412e-09
2.21084e-09
-1.59391e-09
2.00519e-09
-1.82162e-09
4.81978e-10
-2.52035e-09
1.64458e-09
-6.1709e-09
7.08088e-09
-1.11518e-08
1.72118e-08
3.82598e-09
-1.71276e-09
-1.78385e-09
-3.48373e-09
3.76959e-09
2.62457e-10
-1.63013e-09
-1.30547e-09
2.78834e-10
2.94237e-09
2.89556e-10
2.55937e-09
1.24591e-09
-2.1845e-09
-4.76603e-09
7.89948e-10
2.31818e-09
-3.11669e-09
-5.00781e-09
5.13441e-11
-1.42774e-09
-2.08715e-09
-2.83964e-09
-4.82674e-10
2.23363e-09
-1.41311e-09
-1.38964e-09
2.14982e-09
-3.7218e-09
-2.96059e-09
2.56819e-10
-1.73266e-09
-3.82127e-10
2.20275e-09
-2.48391e-09
1.12963e-09
-2.76793e-09
5.28516e-09
-1.28867e-08
1.88625e-08
-3.63599e-09
-4.03733e-10
-1.05074e-11
1.84933e-09
-2.48893e-09
-2.60394e-09
-1.44635e-09
1.75701e-09
-1.80098e-09
2.34193e-10
-8.26367e-10
4.53448e-10
2.44885e-09
1.57663e-09
5.20373e-09
-7.02642e-10
4.9866e-10
9.12521e-10
6.25959e-09
2.44242e-09
-8.47246e-10
1.03043e-09
2.7605e-09
-1.85668e-09
1.35287e-09
5.47778e-10
5.24342e-10
-1.56499e-09
2.18256e-09
3.37289e-09
1.48001e-09
3.70239e-09
1.3334e-09
9.78655e-10
1.44969e-09
5.49496e-09
-2.65489e-09
7.9953e-09
-1.34984e-08
2.25119e-08
3.3461e-09
-1.8499e-09
3.10286e-09
9.91089e-10
6.60049e-11
3.41498e-09
4.32061e-09
2.13938e-09
1.38354e-09
-1.49443e-09
8.36462e-10
-3.66139e-09
-2.87015e-09
-6.6344e-10
-5.29465e-09
2.52243e-09
-1.09722e-09
1.21871e-11
-6.27257e-09
-1.47207e-09
-3.2949e-09
7.33155e-10
-2.14826e-09
-5.52458e-10
-1.39081e-09
-2.23456e-09
-2.16291e-09
1.64726e-09
-8.69728e-10
-2.09277e-09
-3.15334e-09
-2.93861e-09
-3.92488e-09
3.87878e-10
-2.75845e-09
-1.39897e-09
-7.37522e-09
1.01366e-08
-1.32548e-08
2.11093e-08
-1.24028e-09
-1.92353e-09
-1.32954e-09
-3.09108e-09
4.37636e-09
-1.10331e-09
-9.98198e-10
-3.80349e-09
-1.58425e-09
2.7559e-09
-1.47763e-10
2.60464e-09
1.50223e-09
2.3205e-09
4.44294e-09
-8.04539e-10
-8.14715e-10
-3.30635e-10
3.32299e-09
-2.27481e-09
5.27708e-09
-2.13626e-10
3.19067e-09
-6.24134e-11
1.48743e-09
3.5034e-09
2.82642e-09
-3.00223e-11
7.94823e-10
-6.87019e-10
1.82269e-09
2.07219e-09
1.4182e-09
8.37483e-10
-3.68467e-09
5.42351e-09
-4.54207e-09
5.7016e-09
-1.48666e-08
2.05525e-08
-3.74088e-09
5.04994e-10
1.32243e-09
3.88773e-09
-7.06857e-09
-2.64312e-09
-3.99381e-09
2.00778e-09
-1.66803e-09
-2.74035e-09
-2.70838e-09
3.23054e-09
-2.24088e-09
-2.27081e-09
-1.80337e-09
5.77214e-11
-1.38659e-09
-1.51927e-09
1.97168e-09
1.82636e-09
-3.89191e-09
3.38429e-11
-1.87216e-09
1.07272e-09
1.388e-09
-4.5729e-09
-2.18301e-09
1.08766e-09
1.52523e-09
-1.84481e-10
-1.33652e-09
-7.25879e-10
2.33818e-09
2.01462e-09
-1.31459e-09
2.9294e-09
-5.12438e-09
1.0044e-08
-1.3844e-08
2.3773e-08
5.1081e-09
-6.88642e-10
-3.9782e-10
-2.09599e-09
6.21205e-09
4.49358e-09
3.66475e-09
-1.41575e-09
2.77498e-10
-2.68404e-09
5.80803e-09
-7.77916e-09
3.30012e-09
1.66857e-09
-3.07376e-09
1.85861e-09
3.35547e-09
2.42737e-09
-2.81555e-09
-5.65333e-10
4.61376e-09
-1.38636e-09
-1.28634e-09
3.7478e-10
-4.49643e-09
3.59166e-09
7.06885e-10
-3.60305e-09
-3.89096e-09
1.05952e-09
2.42159e-09
2.97211e-09
-3.57584e-09
2.13049e-10
9.46035e-11
2.21123e-09
-1.8053e-09
6.51657e-09
-1.29661e-08
2.55658e-08
1.07625e-09
1.07494e-09
7.71471e-10
-5.31837e-09
-5.91638e-09
-2.88618e-09
-4.20362e-09
4.0715e-11
5.44408e-09
1.57356e-09
-5.11668e-09
8.34823e-09
-5.82053e-09
-3.59518e-09
3.93958e-09
-5.77083e-09
-4.89413e-09
1.726e-09
-2.17258e-10
-1.70602e-09
-2.7713e-09
1.92661e-09
-1.63919e-10
-3.41046e-11
1.31001e-09
5.11123e-10
3.25755e-10
2.48824e-09
9.97508e-10
1.89808e-09
-4.08612e-09
-5.41179e-10
-9.42555e-10
-3.99934e-10
-2.86349e-10
5.62393e-09
-1.00159e-08
1.18025e-08
-1.55542e-08
2.34925e-08
-5.6614e-09
-2.90027e-10
-7.49608e-11
3.82972e-09
2.88376e-09
8.62853e-10
4.24087e-09
3.22992e-09
-6.93953e-09
3.94553e-09
2.83277e-10
-6.30954e-09
7.15498e-09
2.51737e-09
-1.74034e-10
3.3534e-09
2.32209e-09
-1.66577e-09
7.58109e-10
3.08101e-09
5.54243e-10
-3.93657e-10
4.19978e-09
-1.66468e-09
2.64898e-09
-4.16825e-11
-1.03798e-09
3.43429e-09
1.02726e-09
7.97887e-10
1.47385e-09
-3.04198e-09
-3.88632e-11
3.15352e-09
-3.15167e-09
2.95853e-10
-2.77008e-09
4.76515e-09
-1.88001e-08
2.83422e-08
4.00972e-09
-1.54401e-09
-9.50835e-10
3.79942e-09
1.80279e-09
3.81394e-11
-1.67979e-09
-3.40826e-09
6.54088e-09
-3.7161e-09
2.62685e-09
4.07626e-09
-6.79612e-09
1.9737e-09
-2.17706e-09
4.66261e-09
2.98509e-09
-2.60676e-09
-1.64519e-09
-2.86634e-10
-2.92023e-09
-7.11639e-10
-6.18164e-09
3.54996e-09
-2.37125e-09
-2.46524e-09
-5.22745e-10
-5.38562e-09
-9.17981e-10
-2.74822e-09
9.2974e-10
2.82611e-09
-2.1693e-09
8.29985e-10
-2.51581e-09
4.06913e-09
-5.0899e-09
1.24697e-08
-1.42108e-08
2.62821e-08
2.99879e-09
2.07651e-09
-2.64698e-09
-3.07066e-09
1.00169e-09
-6.60844e-10
2.69258e-09
6.99909e-10
-5.74595e-09
4.53767e-09
-2.88807e-10
-4.61543e-09
3.51137e-09
-3.46811e-09
1.66576e-09
-7.81563e-09
-5.239e-09
2.41629e-09
6.17572e-09
-2.99207e-09
3.01999e-09
3.38337e-09
5.72556e-09
-3.49353e-09
2.54682e-09
4.10193e-10
8.23248e-10
2.61438e-09
-2.51971e-09
-1.40143e-09
9.77095e-10
1.77776e-09
-3.03796e-10
-1.71164e-09
-2.06302e-09
1.01021e-09
-8.19986e-09
9.92635e-09
-1.98756e-08
2.85954e-08
-3.23373e-09
6.88787e-10
7.44394e-09
-5.46931e-10
-1.30312e-09
2.65497e-09
-5.07585e-09
-1.34342e-09
2.4458e-09
-3.98986e-09
1.88634e-09
1.81484e-09
3.12111e-09
3.62493e-10
-7.91402e-10
3.86327e-09
4.06948e-09
1.45489e-09
-5.05192e-09
4.41049e-09
-3.3223e-10
-5.32543e-09
-3.60781e-09
-8.58843e-10
-1.43335e-09
-1.85173e-11
-1.42371e-09
-9.31025e-10
4.43558e-09
3.96313e-09
-2.78496e-09
-2.85606e-09
1.56432e-09
2.53525e-09
-2.60372e-09
7.32847e-09
-2.99048e-09
8.95168e-09
-1.50611e-08
2.86663e-08
-4.72981e-09
-8.24261e-09
-5.67899e-09
2.78208e-09
1.85449e-09
-1.4047e-09
-2.48326e-10
1.70482e-09
3.75163e-09
-3.75848e-09
-4.26888e-09
1.33605e-09
-3.26015e-09
-1.78318e-09
1.13569e-09
-9.78251e-11
-5.02103e-10
-1.09401e-10
-2.88156e-09
-4.13523e-09
4.8692e-09
3.9891e-09
-6.80432e-10
5.82729e-09
-1.12994e-09
-8.28437e-10
3.96586e-10
3.39008e-09
-5.14253e-09
-2.50005e-09
1.00397e-09
-1.74289e-10
-1.27694e-09
2.67783e-09
-3.19312e-09
2.18741e-09
-5.08325e-09
1.35066e-08
-1.80817e-08
3.03709e-08
7.40263e-09
3.13149e-09
6.46148e-09
-2.70541e-09
-2.48846e-10
2.60909e-09
-2.36369e-10
2.0398e-09
-2.48224e-09
6.07302e-09
6.79707e-09
-1.84095e-09
-9.19508e-10
-2.26136e-10
1.85748e-09
-9.56408e-10
-1.78085e-09
-2.53528e-09
4.2282e-09
1.00457e-09
-6.11822e-09
-1.69331e-09
1.86516e-09
-7.13102e-09
-9.875e-10
2.0961e-09
1.58598e-09
-1.64871e-09
6.06332e-09
1.94337e-09
-3.7602e-09
5.55566e-09
-8.38634e-10
-1.95766e-09
2.07954e-09
2.49562e-09
-8.92493e-09
6.6022e-09
-2.24015e-08
3.00401e-08
3.69735e-09
-6.64697e-10
-1.57674e-09
-3.40439e-09
-5.14172e-09
-7.17856e-10
4.16751e-09
-9.38885e-09
-2.0362e-09
-2.91312e-09
-2.45622e-09
-2.5157e-09
6.62078e-09
4.38379e-09
-5.57708e-09
2.3262e-09
4.4749e-09
-1.46328e-09
3.89495e-09
-5.04213e-10
1.7183e-09
-5.8718e-11
-2.01757e-09
7.0083e-09
2.12547e-09
-9.17693e-10
2.15018e-09
-2.7702e-09
-5.31588e-09
-2.11351e-09
3.0563e-09
-6.28702e-09
2.63661e-09
3.91217e-09
-5.31235e-09
2.27053e-09
-7.33266e-09
1.44041e-08
-1.6085e-08
3.03616e-08
-5.72476e-09
-3.16342e-09
3.20314e-09
1.96161e-09
7.03394e-09
5.80907e-10
1.67868e-09
7.80656e-09
-2.48698e-09
6.58678e-09
-7.95825e-09
3.03107e-09
-4.36555e-09
1.86463e-09
6.9096e-09
2.24756e-09
-7.06495e-09
2.28954e-09
-5.18308e-09
1.04957e-09
-2.83976e-09
5.00975e-09
1.88993e-09
-4.95709e-09
-7.56672e-10
-5.7885e-10
-3.90922e-09
3.95381e-09
3.35447e-09
5.06228e-10
6.40625e-11
6.01954e-09
-4.21715e-09
5.84526e-10
-2.27628e-09
7.49635e-09
-3.59982e-09
1.00663e-08
-1.81684e-08
3.53953e-08
-6.95672e-09
3.2318e-09
-2.02629e-09
2.5492e-09
-3.27637e-09
-1.29853e-09
2.61824e-10
3.88171e-09
6.48411e-10
-1.05532e-09
3.94509e-09
-8.61427e-10
1.12847e-09
-9.14272e-09
-9.8416e-10
-5.0398e-09
5.8471e-09
2.59146e-09
2.97653e-10
-7.67733e-11
7.05868e-11
-8.37359e-09
-1.33486e-09
6.14103e-10
-1.71523e-09
2.42514e-09
2.10486e-09
-8.61265e-10
-2.38665e-09
-2.06771e-09
-1.70379e-10
-4.22953e-09
-3.1716e-09
-4.73397e-10
-9.83959e-10
-2.72873e-10
-8.70114e-09
1.10597e-08
-2.24099e-08
3.17933e-08
1.00115e-08
8.26513e-10
1.3441e-09
-5.75869e-09
-3.49378e-09
-3.95312e-10
3.82612e-09
-4.77757e-09
6.27679e-09
5.40613e-10
2.09032e-09
-6.92036e-10
-3.7158e-09
7.47956e-09
-4.80631e-09
5.4246e-09
-5.41693e-09
-3.10087e-09
-2.23844e-09
1.32027e-09
4.9231e-10
6.65563e-09
-3.12157e-09
-1.41343e-09
2.59872e-10
-1.97323e-09
-3.16794e-09
-2.56221e-09
3.30497e-09
2.03395e-09
1.84672e-09
4.61301e-09
4.15197e-09
4.85237e-09
-5.58161e-09
5.72771e-09
-4.79205e-09
1.02833e-08
-2.1702e-08
3.2476e-08
-1.6733e-09
-3.42105e-09
-3.02886e-09
-2.0237e-09
1.81966e-09
-1.68518e-09
-8.58585e-09
-2.31542e-09
4.77843e-09
-5.56389e-09
-1.60986e-09
2.48938e-09
-4.33057e-09
-3.3548e-09
-1.32858e-09
-3.29757e-09
4.23317e-09
8.19752e-09
3.68275e-09
-7.79811e-10
3.49391e-09
-2.2364e-09
3.75078e-09
3.71778e-09
-5.40614e-10
8.01011e-10
3.59434e-09
2.35505e-09
-2.65289e-09
-2.38431e-10
-2.11347e-09
-4.87405e-09
-2.93904e-09
5.21641e-10
7.93878e-10
5.23865e-09
-7.02454e-09
1.4651e-08
-1.95552e-08
3.75447e-08
2.93683e-09
-1.0309e-09
7.39974e-09
7.90567e-09
-1.05643e-09
3.46485e-09
-1.6312e-09
-1.11792e-09
-1.13751e-08
7.15649e-09
4.35144e-09
4.7692e-09
3.05294e-10
-2.98492e-09
1.73607e-09
8.53466e-10
1.01804e-10
-4.56805e-09
7.2721e-10
5.56946e-09
-3.00554e-09
-3.64285e-09
1.51956e-09
3.55036e-10
8.11163e-10
-4.26153e-09
-2.22352e-09
3.14419e-10
-1.33639e-09
4.29919e-09
-4.01709e-09
5.62464e-09
-3.62893e-09
-1.70534e-09
-3.07579e-09
1.01812e-10
-6.60674e-09
9.73227e-09
-1.9747e-08
3.70761e-08
-1.91914e-09
-3.78576e-09
-1.01992e-08
6.31282e-09
3.43139e-09
-2.59972e-09
-1.92055e-09
7.3918e-09
6.30932e-09
-1.10647e-09
-7.10864e-09
2.64022e-09
6.0801e-09
3.66445e-09
-3.16696e-09
-1.26291e-09
-3.25181e-11
-1.58219e-09
-3.88679e-09
-4.50118e-09
2.54877e-09
7.38481e-09
3.59405e-10
-6.27993e-09
4.01123e-09
3.30753e-09
-1.67414e-09
1.26867e-11
2.25839e-09
-3.66677e-09
1.52383e-09
-5.05832e-09
2.91095e-09
6.44324e-09
-1.56217e-09
8.45519e-09
-8.41301e-09
1.4493e-08
-2.54624e-08
3.43892e-08
2.2807e-09
4.08028e-10
9.07124e-09
-9.41795e-09
-2.29088e-09
5.51011e-09
-1.33831e-10
-1.75788e-09
-7.80114e-09
-7.26215e-09
9.12714e-09
-6.86993e-09
-7.14302e-09
-1.35463e-09
8.07411e-09
-1.92874e-09
-4.73241e-09
1.71723e-09
-4.74841e-10
2.86655e-10
-7.49203e-09
-7.77327e-09
-3.9011e-09
5.27347e-09
-2.60335e-09
2.10662e-09
6.19814e-09
1.19918e-09
-2.33181e-09
3.41347e-10
4.14287e-09
4.94569e-09
-2.92128e-09
-4.87039e-09
-5.28026e-09
2.26141e-09
-8.40153e-09
1.26507e-08
-1.84045e-08
3.68594e-08
3.46069e-09
9.32534e-09
-2.75503e-09
4.41695e-10
-4.09213e-11
-6.15151e-09
5.7898e-09
-2.12761e-09
5.46912e-09
1.79321e-09
-6.92514e-09
2.97699e-10
7.23523e-09
2.88339e-09
-6.01992e-09
4.38658e-09
-1.89196e-09
-7.09241e-12
6.46498e-09
-3.83959e-09
5.22683e-09
5.87125e-09
4.1876e-09
1.01369e-09
-1.40257e-09
-3.45353e-09
-5.33471e-09
-2.72469e-10
-7.24033e-11
1.36165e-09
-1.47727e-09
-1.40784e-09
2.93563e-09
8.03093e-09
8.84832e-10
2.37788e-09
-6.01269e-09
1.6572e-08
-2.86462e-08
4.11551e-08
3.13272e-09
-1.3206e-08
-5.19665e-09
-1.08647e-09
-2.31203e-09
2.33009e-09
-6.92209e-09
1.48115e-09
-3.77847e-09
2.14654e-09
7.26345e-09
-4.35746e-09
-2.12778e-09
-4.74053e-09
9.0028e-10
2.49443e-09
4.16447e-09
-6.45357e-09
3.79627e-09
9.45248e-10
1.1987e-09
-4.98523e-09
-3.99264e-09
-8.13126e-10
1.29078e-09
3.76401e-09
6.32058e-10
-5.84361e-09
3.85646e-09
-1.38763e-09
-5.17387e-09
3.53032e-09
-3.3624e-09
-3.9222e-09
-3.36301e-09
4.56591e-09
-6.13722e-09
6.78832e-09
-1.72461e-08
3.86692e-08
-8.24657e-09
1.9324e-09
1.17527e-08
2.03269e-09
1.02294e-08
1.41533e-10
1.26661e-08
-6.53383e-09
-2.48529e-09
4.29547e-09
-9.33309e-09
1.36426e-09
-1.07344e-09
5.21448e-09
7.1135e-09
-3.83533e-09
8.96878e-10
1.06244e-08
-8.36786e-09
4.62316e-09
-4.21824e-10
1.84793e-09
9.85584e-10
-3.76012e-09
2.26298e-10
9.69164e-10
-2.3116e-09
6.30857e-09
-1.68226e-09
-1.81975e-09
3.11271e-09
-4.68452e-09
-2.85145e-09
3.99951e-09
-2.13815e-09
4.28775e-09
-8.98361e-09
1.93024e-08
-2.87247e-08
3.85239e-08
-3.18476e-09
1.97246e-09
-9.26006e-09
-3.85182e-09
-9.85645e-09
-4.29922e-09
-6.3894e-09
5.59355e-09
-3.89718e-09
-3.53719e-09
7.56499e-09
-2.12929e-09
4.32626e-09
6.11403e-09
-1.05541e-08
-5.03503e-09
1.67885e-09
-5.89753e-09
2.60968e-09
-7.45672e-09
2.62713e-09
1.98529e-09
-1.69234e-09
1.74007e-09
2.65777e-09
-7.4289e-09
1.28552e-09
-2.19749e-09
-5.34696e-09
4.51663e-09
2.60814e-09
3.54328e-09
-1.07238e-09
-2.54402e-10
1.19839e-09
1.70601e-09
-9.56585e-09
8.7138e-09
-2.10435e-08
3.96036e-08
1.24339e-08
2.90598e-09
4.56016e-09
2.39807e-09
4.6462e-09
2.23404e-09
3.47957e-09
-5.73026e-09
1.81838e-10
1.11283e-09
-4.89878e-09
5.10481e-09
1.11875e-09
-8.91203e-09
1.06464e-08
4.22905e-09
-9.12183e-09
-5.79542e-09
-1.04161e-09
3.2608e-09
-2.65115e-09
-1.79153e-09
4.74973e-09
-2.87529e-10
-7.38499e-09
5.48091e-09
5.59416e-09
1.32484e-09
2.90244e-09
1.46856e-10
-6.68042e-09
3.497e-09
2.72561e-09
1.49224e-09
-7.75013e-09
1.00774e-08
-8.05648e-09
2.03055e-08
-2.48742e-08
4.28509e-08
-6.62025e-09
-1.4512e-08
4.353e-09
-7.84016e-09
5.61823e-09
1.62886e-09
5.53511e-09
9.52682e-09
9.38512e-09
-6.8554e-09
2.47533e-10
-5.9683e-10
4.34079e-09
1.79686e-09
-4.39438e-09
4.99941e-09
7.58748e-09
6.1889e-09
-8.09675e-10
-5.6765e-10
3.54011e-09
8.96094e-10
-1.69543e-09
-5.52638e-10
7.60611e-09
3.4993e-10
-6.82243e-09
2.38606e-09
1.6819e-09
-2.20946e-09
6.05041e-09
-5.87503e-09
-2.01506e-09
6.48448e-10
-6.12981e-10
9.17457e-10
-4.78619e-09
8.79557e-09
-2.5989e-08
3.98878e-08
5.57284e-10
4.782e-09
-6.39105e-09
8.73389e-09
-4.97171e-09
-5.13527e-09
-1.56796e-08
-3.00073e-09
6.2672e-09
-1.76959e-09
3.50651e-09
-7.21395e-09
-2.78866e-09
-6.7638e-10
2.01827e-09
-9.07673e-09
-3.91065e-09
-2.68496e-09
5.24923e-09
-4.21006e-09
-3.31128e-09
-1.79555e-09
3.74703e-09
-9.81576e-11
9.94657e-11
2.65488e-10
1.27227e-10
4.29644e-10
1.51993e-09
-2.72628e-09
-1.22798e-09
2.36919e-09
-9.70117e-10
1.03322e-09
-1.85775e-09
3.35794e-09
-1.37634e-08
1.6296e-08
-2.57366e-08
4.25044e-08
7.04356e-09
1.9067e-09
2.62188e-10
-9.61188e-09
-5.89622e-09
3.11059e-09
6.66246e-09
-1.91101e-09
-6.0923e-09
8.31581e-09
1.17303e-09
-1.85329e-09
-7.88233e-09
9.01863e-09
-2.35862e-09
9.92088e-09
3.53925e-09
7.76675e-10
2.10662e-10
6.15527e-09
3.58393e-09
2.70386e-09
-6.51919e-09
-1.12391e-09
-2.26843e-09
-2.54071e-09
3.09044e-09
2.19628e-09
-3.25457e-09
3.2189e-09
-2.30993e-09
1.09201e-09
-3.35993e-09
2.58316e-09
-1.82e-09
7.31362e-09
-3.00506e-09
1.16489e-08
-2.34115e-08
4.24647e-08
-1.12719e-08
3.31837e-09
6.59548e-09
1.11613e-08
2.86117e-09
1.81424e-09
-2.1039e-10
-3.35068e-10
-2.51477e-09
-4.1709e-09
1.50349e-09
5.36154e-09
-3.81025e-10
-1.09178e-08
9.22989e-09
-3.83637e-09
-1.73107e-10
5.54497e-09
-7.32754e-09
-4.69678e-09
-3.61923e-09
1.9944e-09
-1.44028e-10
-2.55379e-09
1.08349e-09
6.23786e-09
-3.01127e-09
-6.838e-09
-5.70355e-10
3.74229e-09
-2.01313e-09
5.87245e-09
5.48801e-09
-8.32922e-12
-4.99481e-09
7.91598e-09
-8.73193e-09
1.8351e-08
-2.40917e-08
4.06441e-08
4.37973e-09
-1.52849e-08
-1.08289e-08
-2.32991e-09
2.03911e-09
4.80982e-09
-1.05419e-10
-3.66062e-09
1.71484e-09
8.67661e-09
-1.99579e-09
5.02294e-09
8.83894e-09
-1.62023e-09
-1.33085e-08
3.3837e-09
1.72332e-09
-1.02243e-08
-1.79197e-09
1.11959e-08
-2.16152e-09
-6.82494e-09
5.45616e-09
8.55125e-09
-4.37004e-10
-9.87229e-09
-3.27048e-09
5.61772e-09
6.64791e-09
-5.64306e-09
-3.65327e-10
-4.82655e-09
-9.63691e-09
4.88191e-09
-2.39514e-09
-1.50991e-10
-1.25972e-08
1.27964e-08
-2.70099e-08
4.49147e-08
5.51569e-09
1.04661e-08
1.43867e-08
-9.17324e-09
5.41939e-09
-1.84199e-09
-2.56701e-09
7.99526e-09
-3.45135e-09
1.02955e-09
-2.6586e-09
1.08715e-09
-1.01936e-08
2.75182e-09
7.96246e-09
-4.51584e-09
-8.62756e-10
7.58353e-09
4.66762e-09
-5.25788e-09
6.74834e-09
-4.0041e-10
-3.39894e-09
-7.12439e-09
5.74891e-10
7.93269e-09
7.85481e-09
-8.48067e-09
-3.30266e-09
3.64976e-09
2.07867e-09
1.58325e-09
6.89247e-09
-5.79832e-09
-2.83088e-09
7.6286e-09
-6.50655e-09
1.29259e-08
-2.46027e-08
4.53729e-08
-1.34669e-09
-4.83492e-09
-7.96311e-09
3.38995e-09
-7.08637e-09
-4.13056e-09
-5.0929e-09
-2.63358e-09
-2.49772e-09
-1.39947e-08
1.43238e-09
-5.9095e-09
-1.53237e-10
3.29581e-09
-9.5906e-09
4.99535e-11
1.55902e-09
-2.74105e-10
4.32015e-10
-6.5438e-09
-1.33521e-09
6.88283e-09
2.33606e-09
-3.50962e-10
2.87561e-09
-5.74082e-09
-9.20374e-10
8.72676e-09
-6.76009e-09
6.36842e-10
2.52002e-10
-1.37871e-09
-2.04365e-09
1.10908e-08
-3.2256e-09
2.15751e-09
-7.79062e-09
1.51623e-08
-2.50463e-08
3.96307e-08
1.89893e-09
-7.19241e-09
1.58168e-08
-1.63048e-09
-2.01751e-09
2.74939e-09
8.76208e-09
-7.00682e-10
5.31864e-09
1.01123e-08
2.03168e-09
-2.89426e-09
-2.2453e-09
-6.79721e-09
7.23552e-09
-5.14734e-09
5.23414e-09
4.3522e-10
-2.31609e-09
7.33665e-09
-4.95401e-09
-4.1692e-09
-5.62407e-09
1.34828e-09
-4.40416e-09
5.17838e-11
-2.92445e-09
-9.70975e-09
7.48127e-09
-2.96096e-09
2.01769e-09
-2.63005e-09
-4.8612e-09
-7.72265e-09
-6.11071e-09
7.62227e-09
-8.8986e-09
1.78803e-08
-3.25789e-08
4.46894e-08
3.10458e-09
8.54503e-09
-9.33801e-09
7.67891e-09
6.91847e-09
-5.31504e-09
5.00822e-09
-9.72664e-09
8.43399e-09
-9.7262e-09
-1.37003e-09
6.35396e-09
1.15746e-08
2.12821e-09
-5.25974e-09
6.48773e-09
-1.44238e-08
-3.08382e-09
5.48646e-09
-4.76151e-09
4.39645e-09
8.29726e-09
2.16433e-09
-8.79545e-10
4.28468e-09
3.11682e-10
-2.11282e-09
8.88839e-09
-1.29189e-10
3.56124e-09
-5.09878e-09
6.10093e-09
4.16055e-09
1.03351e-08
3.00495e-10
3.29504e-09
-8.42865e-09
1.22486e-08
-2.0605e-08
4.5187e-08
-4.72587e-09
-5.39904e-09
2.15203e-09
2.74444e-09
4.14288e-09
-1.54324e-09
-7.09869e-09
1.30576e-08
-1.57809e-08
6.08794e-09
6.66843e-09
-2.691e-09
-6.80408e-09
-9.0807e-11
8.59759e-09
-7.26028e-09
2.78218e-09
1.04934e-09
-6.75281e-09
3.90277e-09
2.614e-10
-6.32139e-09
6.43233e-10
5.40365e-09
-3.54957e-09
1.11471e-09
4.60181e-09
-4.03805e-09
-6.96505e-09
-2.17489e-09
7.6776e-10
-1.14458e-09
-3.53436e-09
-1.57666e-09
-1.04107e-09
5.61124e-09
-6.93875e-09
1.74331e-08
-2.64048e-08
4.35981e-08
1.72131e-09
-8.96111e-09
-2.60143e-09
-6.03264e-09
-1.4039e-08
7.06381e-09
-1.30868e-09
-1.06184e-08
2.07937e-09
6.0789e-09
-1.40146e-08
1.09063e-09
-2.06569e-09
4.9561e-09
-6.38857e-09
9.70866e-09
-5.46075e-10
8.57821e-10
4.58795e-09
8.04999e-10
5.29325e-09
1.55155e-09
5.29117e-09
-5.21573e-09
-1.79252e-09
-4.43512e-09
-8.33431e-09
2.65663e-09
5.22956e-09
2.59212e-09
6.7274e-09
-9.00432e-10
-4.78357e-10
-2.58691e-09
-2.51878e-09
3.84316e-09
-9.68664e-09
1.44199e-08
-2.60165e-08
4.72541e-08
8.37725e-09
6.72647e-09
-1.77879e-09
-5.47753e-09
1.33912e-08
-6.66711e-09
1.33227e-10
8.79981e-09
2.161e-09
-6.04213e-09
1.57495e-08
-6.59298e-09
6.0016e-09
-9.61571e-09
-2.01918e-09
-6.09566e-09
8.47456e-10
-3.58143e-09
-1.00645e-09
-1.23063e-08
-7.46372e-09
-2.47302e-09
-7.37341e-09
-4.90579e-09
-5.04646e-10
9.73011e-09
4.12014e-09
1.90681e-09
1.07665e-09
-1.8909e-09
-8.9753e-09
5.34137e-09
-3.50144e-09
6.3298e-09
-3.19856e-09
2.87994e-09
-6.7994e-09
1.18555e-08
-2.90566e-08
3.92443e-08
-1.33249e-08
4.65218e-09
5.45107e-09
-1.12516e-09
-8.48458e-09
4.23284e-09
-7.68631e-10
-9.32519e-09
2.38322e-09
5.26783e-09
-7.38401e-09
5.81438e-09
-5.96224e-09
5.0253e-09
4.75262e-09
-1.12931e-09
3.19153e-09
-2.65069e-09
-5.0063e-09
1.19321e-08
2.18892e-10
4.08063e-09
9.13458e-09
3.41367e-09
6.88692e-09