/*--------------------------------*- C++ -*----------------------------------*\
| =========                 |                                                 |
| \\      /  F ield         | OpenFOAM: The Open Source CFD Toolbox           |
|  \\    /   O peration     | Version:  2506                                  |
|   \\  /    A nd           | Website:  www.openfoam.com                      |
|    \\/     M anipulation  |                                                 |
\*---------------------------------------------------------------------------*/
FoamFile
{
    version     2.0;
    format      ascii;
    arch        "LSB;label=32;scalar=64";
    class       volScalarField;
    location    "6000";
    object      yPlus;
}
// * * * * * * * * * * * * * * * * * * * * * * * * * * * * * * * * * * * * * //

dimensions      [0 0 0 0 0 0 0];

internalField   uniform 0;

boundaryField
{
    inlet
    {
        type            calculated;
        value           uniform 0;
    }
    outlet
    {
        type            calculated;
        value           uniform 0;
    }
    bottom
    {
        type            calculated;
        value           nonuniform List<scalar> 
412
(
0.617235
0.615755
0.613733
0.61159
0.608989
0.606129
0.603001
0.599632
0.596028
0.592188
0.588107
0.583777
0.579187
0.57432
0.56916
0.563687
0.557877
0.551703
0.545137
0.538137
0.530656
0.522661
0.514106
0.50494
0.49508
0.484451
0.472951
0.460499
0.446927
0.43217
0.41592
0.398231
0.378396
0.35699
0.332031
0.306098
0.272666
0.242218
0.18964
0.159813
0.0507287
0.135317
0.0403774
0.0459241
0.149902
0.146043
0.226779
0.182355
0.297522
0.161742
0.364829
0.164466
0.330638
0.561409
0.582777
0.643029
0.672808
0.701702
0.723963
0.74273
0.758465
0.771844
0.783329
0.793171
0.801584
0.808786
0.814982
0.820336
0.824969
0.828977
0.832423
0.835356
0.837835
0.839922
0.841659
0.843081
0.84422
0.845099
0.845739
0.846161
0.84638
0.846409
0.846259
0.84594
0.845459
0.844824
0.844039
0.843108
0.842036
0.840826
0.839479
0.837999
0.836384
0.834633
0.832747
0.830726
0.828571
0.826284
0.823865
0.821316
0.818638
0.81583
0.812892
0.809825
0.806627
0.803298
0.799838
0.796243
0.792514
0.788649
0.784644
0.780498
0.77621
0.771755
0.767123
0.762318
0.757343
0.752199
0.746885
0.741394
0.73572
0.729858
0.723801
0.717539
0.711065
0.704368
0.697438
0.690263
0.682829
0.675122
0.667127
0.658823
0.650199
0.641197
0.631779
0.621929
0.611634
0.600873
0.589611
0.57781
0.565435
0.552411
0.538658
0.524114
0.508736
0.492457
0.475174
0.456787
0.437199
0.416286
0.393918
0.369929
0.344132
0.316264
0.285977
0.252712
0.215516
0.172415
0.118019
0.0460491
0.121254
0.163931
0.193958
0.216518
0.233801
0.247023
0.257
0.264351
0.269573
0.273095
0.275252
0.276296
0.276495
0.27605
0.27512
0.273858
0.272369
0.270742
0.269036
0.2673
0.265572
0.263884
0.262255
0.260694
0.259185
0.257716
0.256264
0.254814
0.253354
0.251855
0.250307
0.248689
0.24699
0.24521
0.243351
0.241422
0.239437
0.23741
0.235351
0.233267
0.231169
0.229061
0.226953
0.224847
0.222746
0.220649
0.218554
0.216462
0.214373
0.212289
0.210217
0.208168
0.206154
0.204192
0.202304
0.20051
0.198838
0.197316
0.195976
0.19485
0.193975
0.193384
0.193115
0.193202
0.193677
0.194568
0.1959
0.197688
0.199945
0.202673
0.205867
0.209515
0.213596
0.218084
0.222943
0.228134
0.233607
0.239309
0.245177
0.251136
0.257098
0.262954
0.268562
0.273724
0.278159
0.281453
0.282831
0.281396
0.275224
0.257687
0.242735
0.118383
0.0450724
0.204202
0.172183
0.221671
0.22365
0.244649
0.253198
0.26558
0.274158
0.283144
0.290679
0.297931
0.304467
0.310645
0.316384
0.321811
0.326924
0.331779
0.336389
0.340781
0.344968
0.348962
0.352773
0.356411
0.359878
0.363177
0.366313
0.369283
0.372089
0.374735
0.377223
0.379564
0.381781
0.383922
0.386089
0.388326
0.391209
0.395212
0.396929
0.41545
0.431448
0.432041
0.439115
0.443163
0.448087
0.452182
0.456304
0.460073
0.46372
0.467156
0.470455
0.473601
0.47662
0.479514
0.482293
0.484962
0.487527
0.489991
0.492357
0.494626
0.496801
0.498881
0.500868
0.502759
0.504555
0.506254
0.507855
0.509355
0.510752
0.512043
0.513225
0.514294
0.515247
0.516078
0.516784
0.517361
0.517801
0.518104
0.518262
0.518271
0.518127
0.517822
0.517351
0.516708
0.515889
0.514885
0.51369
0.512299
0.510704
0.508899
0.506876
0.504629
0.502149
0.499431
0.496466
0.493245
0.489762
0.486008
0.481974
0.47765
0.47303
0.468101
0.462855
0.457282
0.45137
0.445109
0.438484
0.431481
0.424088
0.416287
0.408058
0.399384
0.39024
0.380599
0.370435
0.359709
0.348386
0.336413
0.323735
0.310277
0.295954
0.280646
0.264207
0.246425
0.227019
0.20554
0.181306
0.153008
0.117874
0.0656522
0.0728039
0.122321
0.156897
0.185244
0.20968
0.231659
0.25152
0.270065
0.287094
0.303407
0.318389
0.333129
0.346457
0.360085
0.371931
0.384869
0.395205
0.407958
0.416507
0.42983
0.435908
0.451085
0.453282
0.472632
0.468255
0.496093
0.480365
0.524991
0.490895
0.563111
)
;
    }
    top
    {
        type            calculated;
        value           uniform 0;
    }
    frontAndBack
    {
        type            empty;
    }
}


// ************************************************************************* //
