/*--------------------------------*- C++ -*----------------------------------*\
| =========                 |                                                 |
| \\      /  F ield         | OpenFOAM: The Open Source CFD Toolbox           |
|  \\    /   O peration     | Version:  2006                                  |
|   \\  /    A nd           | Website:  www.openfoam.com                      |
|    \\/     M anipulation  |                                                 |
\*---------------------------------------------------------------------------*/
FoamFile
{
    version     2.0;
    format      ascii;
    class       volScalarField;
    location    "6000";
    object      k;
}
// * * * * * * * * * * * * * * * * * * * * * * * * * * * * * * * * * * * * * //

dimensions      [0 2 -2 0 0 0 0];


internalField   nonuniform List<scalar> 
72100
(
0.00482068
0.00479898
0.00477292
0.00474521
0.00470988
0.00467075
0.00462798
0.00458214
0.00453343
0.00448197
0.00442779
0.00437089
0.0043112
0.00424862
0.00418305
0.00411433
0.00404234
0.00396689
0.00388781
0.00380489
0.00371791
0.00362661
0.0035307
0.0034299
0.00332381
0.00321217
0.00309436
0.00297018
0.00283836
0.00269972
0.00255185
0.00239768
0.00223046
0.00206003
0.00186782
0.00168394
0.0014566
0.00127366
0.000990036
0.000857295
0.00427056
0.00425937
0.00425696
0.00424751
0.00423342
0.00421655
0.00419728
0.0041759
0.00415256
0.00412734
0.00410022
0.00407117
0.00404015
0.00400706
0.00397185
0.00393444
0.00389476
0.00385271
0.00380821
0.00376113
0.00371134
0.0036587
0.00360303
0.00354416
0.00348183
0.00341583
0.00334581
0.00327107
0.00319119
0.0031062
0.00301539
0.00291867
0.00281434
0.00270285
0.00258036
0.00244997
0.00230361
0.00215016
0.00197212
0.001783
0.0257443
0.0257333
0.0257432
0.0257041
0.0256397
0.0255593
0.0254655
0.0253597
0.0252429
0.0251154
0.0249771
0.0248278
0.0246671
0.0244947
0.0243101
0.0241129
0.0239028
0.0236792
0.0234418
0.0231898
0.0229225
0.0226391
0.0223387
0.0220203
0.0216825
0.021324
0.0209429
0.0205343
0.0200965
0.019629
0.0191291
0.0185929
0.0180153
0.0173892
0.0167063
0.0159574
0.0151384
0.0142214
0.0132317
0.0120037
0.0911956
0.0912899
0.0913335
0.0912065
0.090995
0.0907297
0.0904187
0.0900672
0.0896782
0.0892526
0.0887901
0.0882899
0.0877508
0.0871711
0.0865495
0.0858847
0.0851752
0.0844195
0.0836156
0.0827613
0.0818541
0.0808911
0.079869
0.0787839
0.0776314
0.0764064
0.0751022
0.0737013
0.072198
0.0705893
0.0688665
0.067014
0.0650156
0.062841
0.0604671
0.0578471
0.0549869
0.0517467
0.0482774
0.0438695
0.21483
0.215226
0.215333
0.215083
0.214659
0.214125
0.213494
0.212778
0.211983
0.21111
0.210158
0.209125
0.208009
0.206805
0.205509
0.20412
0.202634
0.201046
0.199353
0.197549
0.195628
0.193583
0.191407
0.18909
0.186623
0.183992
0.181182
0.17815
0.174886
0.171378
0.167607
0.163531
0.159116
0.154277
0.148972
0.143055
0.136583
0.129121
0.121165
0.110713
0.375921
0.376548
0.376698
0.376368
0.375794
0.375064
0.374194
0.3732
0.37209
0.370866
0.369526
0.368065
0.366477
0.364758
0.362902
0.360903
0.358756
0.356455
0.353992
0.351359
0.348546
0.345541
0.342333
0.338905
0.335241
0.331319
0.327114
0.322553
0.317617
0.312287
0.306531
0.300267
0.293444
0.285895
0.277569
0.268155
0.257819
0.245627
0.232655
0.214853
0.536267
0.536805
0.536932
0.536587
0.535981
0.535201
0.534261
0.53318
0.531967
0.53062
0.529137
0.527511
0.525735
0.523802
0.521704
0.519436
0.516989
0.514358
0.511532
0.5085
0.50525
0.501769
0.49804
0.494044
0.489759
0.485159
0.48021
0.474813
0.468952
0.462599
0.45571
0.448175
0.439926
0.430727
0.420524
0.408854
0.395995
0.380519
0.364077
0.340578
0.674203
0.674473
0.674524
0.674202
0.673641
0.672913
0.672027
0.671
0.66984
0.668543
0.667104
0.665518
0.663773
0.661862
0.659777
0.657511
0.655058
0.652408
0.649552
0.646478
0.643173
0.639622
0.635809
0.631712
0.627308
0.622568
0.617456
0.61186
0.605766
0.599145
0.591946
0.58404
0.575357
0.565616
0.554764
0.542253
0.528433
0.511561
0.493652
0.467289
0.78608
0.786096
0.786074
0.785781
0.785286
0.784644
0.783869
0.782968
0.781942
0.780786
0.779492
0.778054
0.776459
0.774699
0.772765
0.770652
0.768353
0.765858
0.763158
0.760241
0.757095
0.753704
0.750052
0.746119
0.741879
0.737307
0.732366
0.726947
0.721038
0.714606
0.707597
0.699878
0.691375
0.681796
0.671085
0.658676
0.644932
0.628007
0.610021
0.583062
0.875909
0.875761
0.875673
0.875412
0.874998
0.874464
0.873818
0.873061
0.872191
0.871199
0.870078
0.86882
0.86741
0.865839
0.864101
0.862189
0.860095
0.857813
0.855331
0.852639
0.849725
0.846574
0.843171
0.839496
0.835526
0.831234
0.826589
0.821526
0.816013
0.81
0.803434
0.796183
0.788171
0.779118
0.768969
0.757175
0.74407
0.727852
0.710558
0.684411
0.947743
0.947478
0.947332
0.947099
0.946765
0.946343
0.945833
0.945231
0.944531
0.943723
0.942799
0.941747
0.940553
0.939207
0.937704
0.936038
0.9342
0.932183
0.929978
0.927575
0.924962
0.922126
0.919054
0.915725
0.912118
0.90821
0.903974
0.899349
0.894303
0.888789
0.882752
0.876066
0.868659
0.860275
0.850891
0.839954
0.827761
0.812628
0.796421
0.77185
1.00537
1.00502
1.00482
1.00461
1.00435
1.00403
1.00365
1.00319
1.00266
1.00204
1.00132
1.00048
0.999512
0.998406
0.997156
0.995755
0.994197
0.992474
0.990576
0.988495
0.98622
0.983739
0.981041
0.978105
0.974914
0.971448
0.967683
0.963563
0.959056
0.954116
0.948693
0.942664
0.935962
0.928347
0.919801
0.909796
0.898635
0.884718
0.86982
0.847142
1.05197
1.05157
1.05133
1.05113
1.05092
1.05068
1.05041
1.0501
1.04972
1.04927
1.04874
1.04811
1.04736
1.04649
1.04549
1.04436
1.04308
1.04166
1.04008
1.03833
1.0364
1.03429
1.03198
1.02945
1.0267
1.0237
1.02043
1.01684
1.0129
1.00858
1.00381
0.998477
0.992528
0.985737
0.978087
0.969086
0.959032
0.946416
0.932958
0.912206
1.09008
1.08965
1.08938
1.08918
1.089
1.08883
1.08865
1.08844
1.0882
1.0879
1.08753
1.08709
1.08655
1.0859
1.08514
1.08427
1.08327
1.08213
1.08085
1.07943
1.07785
1.0761
1.07417
1.07206
1.06973
1.06719
1.06442
1.06137
1.05801
1.0543
1.05018
1.04556
1.04037
1.03441
1.02767
1.01969
1.01077
0.999493
0.987497
0.968768
1.12167
1.12122
1.12092
1.12071
1.12055
1.12042
1.1203
1.12018
1.12003
1.11986
1.11964
1.11936
1.119
1.11855
1.11801
1.11737
1.11663
1.11576
1.11477
1.11365
1.1124
1.111
1.10944
1.10771
1.10581
1.10371
1.10142
1.09888
1.09608
1.09297
1.0895
1.08556
1.08111
1.07596
1.07011
1.06314
1.05532
1.04537
1.03481
1.01813
1.14821
1.14775
1.14743
1.1472
1.14704
1.14693
1.14685
1.14679
1.14672
1.14665
1.14654
1.14639
1.14619
1.14592
1.14557
1.14514
1.14462
1.144
1.14327
1.14244
1.14148
1.1404
1.13919
1.13783
1.13632
1.13464
1.1328
1.13075
1.12848
1.12594
1.12307
1.11979
1.11603
1.11166
1.10665
1.10065
1.09389
1.08523
1.07603
1.06135
1.17081
1.17036
1.17002
1.16977
1.1696
1.16949
1.16942
1.16939
1.16938
1.16937
1.16936
1.16932
1.16924
1.16911
1.16893
1.16868
1.16836
1.16796
1.16747
1.16689
1.16621
1.16542
1.16452
1.16349
1.16234
1.16106
1.15963
1.15803
1.15625
1.15425
1.15195
1.14927
1.14617
1.14251
1.1383
1.13321
1.12745
1.12
1.1121
1.09932
1.19022
1.18979
1.18944
1.18917
1.18898
1.18887
1.18881
1.1888
1.18883
1.18887
1.18893
1.18897
1.189
1.18899
1.18895
1.18885
1.18871
1.18849
1.18821
1.18785
1.18741
1.18689
1.18627
1.18555
1.18473
1.18379
1.18274
1.18156
1.18023
1.17871
1.17693
1.17481
1.17232
1.16933
1.16586
1.16162
1.15678
1.15047
1.14379
1.13279
1.20701
1.20659
1.20624
1.20595
1.20575
1.20563
1.20558
1.20558
1.20563
1.20572
1.20583
1.20594
1.20606
1.20615
1.20622
1.20626
1.20626
1.20622
1.20612
1.20596
1.20574
1.20545
1.20509
1.20464
1.20411
1.2035
1.20279
1.20198
1.20105
1.19998
1.19867
1.19706
1.19512
1.19275
1.18996
1.1865
1.18254
1.17727
1.17173
1.16238
1.22162
1.22122
1.22086
1.22057
1.22036
1.22023
1.22017
1.22018
1.22025
1.22036
1.22051
1.22068
1.22086
1.22104
1.22121
1.22137
1.2215
1.2216
1.22166
1.22168
1.22165
1.22157
1.22144
1.22124
1.22099
1.22066
1.22026
1.21978
1.21922
1.21855
1.21767
1.21652
1.21509
1.21329
1.21113
1.20838
1.20522
1.20092
1.19644
1.1886
1.23441
1.23402
1.23366
1.23337
1.23314
1.233
1.23294
1.23295
1.23302
1.23315
1.23333
1.23354
1.23378
1.23403
1.23428
1.23453
1.23477
1.235
1.2352
1.23537
1.23552
1.23563
1.2357
1.23573
1.23572
1.23565
1.23554
1.23537
1.23514
1.23483
1.23434
1.23361
1.23264
1.23135
1.22976
1.22768
1.22525
1.22185
1.21834
1.2119
1.24565
1.24527
1.24493
1.24462
1.24439
1.24424
1.24416
1.24417
1.24424
1.24438
1.24458
1.24482
1.2451
1.2454
1.24572
1.24605
1.24638
1.24672
1.24704
1.24735
1.24765
1.24793
1.24818
1.24841
1.24861
1.24878
1.24893
1.24904
1.24912
1.24914
1.24899
1.24865
1.2481
1.24728
1.24621
1.24473
1.24298
1.2404
1.23779
1.23263
1.25557
1.25521
1.25487
1.25457
1.25433
1.25416
1.25407
1.25407
1.25414
1.25428
1.25449
1.25475
1.25506
1.2554
1.25577
1.25617
1.25658
1.257
1.25743
1.25786
1.25828
1.25871
1.25912
1.25953
1.25993
1.26031
1.26069
1.26106
1.26142
1.26173
1.26191
1.26191
1.26174
1.26135
1.26076
1.25983
1.2587
1.25687
1.2551
1.25111
1.26435
1.26401
1.26368
1.26338
1.26313
1.26295
1.26286
1.26284
1.2629
1.26304
1.26325
1.26352
1.26385
1.26422
1.26463
1.26508
1.26555
1.26605
1.26656
1.26709
1.26763
1.26818
1.26874
1.2693
1.26987
1.27045
1.27104
1.27163
1.27224
1.27283
1.27329
1.27361
1.27379
1.27379
1.27364
1.27321
1.27265
1.27151
1.2705
1.26759
1.27215
1.27182
1.2715
1.27121
1.27095
1.27077
1.27066
1.27063
1.27068
1.27081
1.27102
1.27129
1.27163
1.27202
1.27246
1.27295
1.27347
1.27403
1.27461
1.27522
1.27586
1.27652
1.2772
1.2779
1.27863
1.27937
1.28014
1.28094
1.28178
1.28261
1.28334
1.28395
1.28444
1.2848
1.28504
1.28507
1.28503
1.28452
1.28422
1.28229
1.27908
1.27878
1.27847
1.27818
1.27792
1.27773
1.27761
1.27756
1.2776
1.27772
1.27792
1.27819
1.27853
1.27894
1.2794
1.27991
1.28047
1.28107
1.28172
1.2824
1.28312
1.28387
1.28466
1.28548
1.28633
1.28723
1.28816
1.28915
1.29018
1.29124
1.2922
1.29307
1.29385
1.29453
1.29514
1.29559
1.29602
1.29609
1.29644
1.29541
1.28526
1.28497
1.28468
1.28439
1.28414
1.28394
1.2838
1.28375
1.28377
1.28388
1.28407
1.28433
1.28467
1.28508
1.28555
1.28608
1.28667
1.28731
1.288
1.28874
1.28952
1.29035
1.29123
1.29215
1.29312
1.29414
1.29523
1.29637
1.29759
1.29883
1.30001
1.30111
1.30216
1.30313
1.30407
1.30491
1.30577
1.30636
1.30731
1.3071
1.29077
1.2905
1.29021
1.28993
1.28968
1.28948
1.28934
1.28927
1.28928
1.28937
1.28954
1.2898
1.29013
1.29054
1.29101
1.29156
1.29216
1.29283
1.29355
1.29433
1.29517
1.29607
1.29702
1.29803
1.2991
1.30023
1.30144
1.30273
1.3041
1.30552
1.30689
1.3082
1.30949
1.31072
1.31197
1.31314
1.31441
1.31548
1.31697
1.31752
1.29567
1.29542
1.29515
1.29488
1.29463
1.29443
1.29428
1.2942
1.29419
1.29427
1.29443
1.29467
1.29499
1.29539
1.29587
1.29641
1.29703
1.29771
1.29846
1.29928
1.30016
1.3011
1.30212
1.3032
1.30435
1.30559
1.3069
1.30831
1.30983
1.3114
1.31293
1.31443
1.31593
1.31741
1.31892
1.32042
1.32204
1.32355
1.32555
1.32679
1.30005
1.29981
1.29956
1.2993
1.29905
1.29884
1.29869
1.2986
1.29858
1.29864
1.29879
1.29901
1.29932
1.29971
1.30018
1.30072
1.30135
1.30204
1.30281
1.30365
1.30456
1.30554
1.30661
1.30775
1.30897
1.31029
1.3117
1.31322
1.31485
1.31655
1.31823
1.3199
1.32158
1.32328
1.32504
1.32682
1.32877
1.33069
1.33314
1.33501
1.30393
1.30371
1.30348
1.30323
1.30299
1.30278
1.30262
1.30253
1.3025
1.30254
1.30267
1.30288
1.30317
1.30355
1.30401
1.30455
1.30517
1.30586
1.30664
1.3075
1.30843
1.30945
1.31055
1.31174
1.31302
1.3144
1.31589
1.3175
1.31924
1.32105
1.32286
1.32467
1.32653
1.32841
1.33039
1.33243
1.33469
1.33697
1.33984
1.34229
1.30738
1.30718
1.30695
1.30672
1.30649
1.30628
1.30612
1.30602
1.30598
1.30601
1.30612
1.30632
1.3066
1.30696
1.3074
1.30793
1.30854
1.30924
1.31002
1.31088
1.31183
1.31287
1.314
1.31523
1.31656
1.318
1.31956
1.32124
1.32307
1.32497
1.32689
1.32883
1.33083
1.33289
1.33507
1.33734
1.33987
1.34248
1.34573
1.34871
1.31043
1.31024
1.31003
1.30981
1.30959
1.30939
1.30923
1.30912
1.30907
1.30909
1.30919
1.30937
1.30963
1.30997
1.3104
1.31092
1.31152
1.31221
1.31299
1.31385
1.31481
1.31587
1.31702
1.31828
1.31964
1.32113
1.32274
1.32449
1.32638
1.32836
1.33037
1.33243
1.33456
1.33677
1.33912
1.34161
1.34438
1.34729
1.35089
1.35435
1.31311
1.31294
1.31275
1.31253
1.31232
1.31213
1.31197
1.31186
1.3118
1.31181
1.3119
1.31206
1.3123
1.31263
1.31304
1.31354
1.31413
1.31481
1.31559
1.31645
1.31741
1.31847
1.31964
1.32092
1.32231
1.32383
1.32549
1.32729
1.32924
1.33128
1.33337
1.33552
1.33776
1.3401
1.34262
1.34529
1.34828
1.35147
1.35539
1.35928
1.31546
1.3153
1.31512
1.31492
1.31472
1.31454
1.31438
1.31426
1.3142
1.3142
1.31428
1.31442
1.31465
1.31496
1.31536
1.31584
1.31642
1.31709
1.31785
1.31871
1.31967
1.32073
1.3219
1.32319
1.32461
1.32615
1.32784
1.32969
1.33169
1.33378
1.33593
1.33816
1.34049
1.34295
1.3456
1.34844
1.35163
1.35507
1.35927
1.36356
1.31749
1.31735
1.31718
1.317
1.31681
1.31663
1.31648
1.31636
1.3163
1.31629
1.31635
1.31649
1.3167
1.31699
1.31737
1.31784
1.3184
1.31905
1.3198
1.32065
1.32161
1.32267
1.32384
1.32514
1.32657
1.32813
1.32985
1.33172
1.33376
1.33588
1.33808
1.34038
1.34279
1.34536
1.34813
1.35112
1.35448
1.35814
1.3626
1.36725
1.31923
1.3191
1.31895
1.31878
1.3186
1.31843
1.31829
1.31818
1.31811
1.3181
1.31815
1.31827
1.31847
1.31875
1.31911
1.31956
1.3201
1.32074
1.32147
1.32231
1.32326
1.32431
1.32549
1.32678
1.32822
1.32979
1.33153
1.33343
1.33549
1.33764
1.33988
1.34222
1.34471
1.34736
1.35023
1.35335
1.35688
1.36074
1.36543
1.3704
1.3207
1.32058
1.32045
1.32029
1.32012
1.31997
1.31983
1.31972
1.31965
1.31964
1.31968
1.31979
1.31998
1.32024
1.32059
1.32102
1.32155
1.32217
1.32289
1.32371
1.32464
1.32569
1.32686
1.32815
1.32959
1.33117
1.33292
1.33483
1.3369
1.33907
1.34134
1.34373
1.34627
1.34899
1.35196
1.35519
1.35886
1.36289
1.3678
1.37305
1.32192
1.32181
1.32168
1.32154
1.32139
1.32124
1.32111
1.32101
1.32094
1.32093
1.32097
1.32107
1.32124
1.32149
1.32182
1.32224
1.32275
1.32335
1.32406
1.32487
1.32578
1.32682
1.32798
1.32927
1.3307
1.33229
1.33403
1.33596
1.33803
1.34021
1.3425
1.34492
1.34751
1.35029
1.35334
1.35667
1.36046
1.36466
1.36974
1.37526
1.32289
1.3228
1.32268
1.32255
1.32242
1.32228
1.32216
1.32206
1.322
1.32198
1.32202
1.32212
1.32228
1.32252
1.32283
1.32324
1.32373
1.32432
1.325
1.32579
1.3267
1.32772
1.32887
1.33015
1.33157
1.33316
1.33491
1.33683
1.3389
1.34108
1.34338
1.34582
1.34845
1.35128
1.3544
1.35782
1.36172
1.36606
1.3713
1.37705
1.32364
1.32355
1.32345
1.32334
1.32321
1.32309
1.32298
1.32289
1.32283
1.32282
1.32285
1.32294
1.3231
1.32332
1.32363
1.32402
1.32449
1.32507
1.32574
1.32651
1.3274
1.32841
1.32954
1.33081
1.33223
1.3338
1.33555
1.33746
1.33953
1.3417
1.34401
1.34647
1.34912
1.352
1.35517
1.35867
1.36266
1.36712
1.37252
1.37847
1.32416
1.32409
1.324
1.3239
1.32379
1.32368
1.32358
1.3235
1.32345
1.32344
1.32347
1.32356
1.32371
1.32393
1.32422
1.3246
1.32506
1.32561
1.32627
1.32703
1.3279
1.32889
1.33001
1.33127
1.33268
1.33424
1.33598
1.33788
1.33993
1.34209
1.3444
1.34687
1.34954
1.35246
1.35568
1.35924
1.36332
1.36789
1.37341
1.37954
1.32448
1.32442
1.32434
1.32425
1.32416
1.32406
1.32397
1.3239
1.32386
1.32385
1.32389
1.32397
1.32412
1.32433
1.32462
1.32498
1.32543
1.32597
1.32661
1.32736
1.32821
1.32919
1.33029
1.33154
1.33293
1.33448
1.33621
1.33809
1.34012
1.34227
1.34457
1.34705
1.34974
1.35268
1.35594
1.35956
1.36371
1.36837
1.37401
1.3803
1.3246
1.32455
1.32448
1.32441
1.32433
1.32424
1.32417
1.32411
1.32407
1.32407
1.32411
1.3242
1.32434
1.32455
1.32483
1.32518
1.32562
1.32615
1.32677
1.3275
1.32834
1.32931
1.3304
1.33162
1.333
1.33454
1.33625
1.33811
1.34012
1.34225
1.34455
1.34702
1.34972
1.35268
1.35598
1.35965
1.36386
1.36861
1.37433
1.38076
1.32452
1.32448
1.32443
1.32437
1.3243
1.32423
1.32417
1.32412
1.3241
1.3241
1.32414
1.32423
1.32438
1.32458
1.32485
1.3252
1.32563
1.32615
1.32676
1.32748
1.3283
1.32925
1.33033
1.33154
1.3329
1.33442
1.33611
1.33795
1.33993
1.34205
1.34433
1.3468
1.34951
1.35249
1.35581
1.35952
1.36378
1.3686
1.37441
1.38096
1.32426
1.32423
1.32419
1.32415
1.32409
1.32404
1.32399
1.32395
1.32393
1.32395
1.324
1.32409
1.32424
1.32444
1.32471
1.32505
1.32547
1.32598
1.32658
1.32728
1.3281
1.32903
1.33009
1.33129
1.33264
1.33414
1.33581
1.33762
1.33957
1.34167
1.34394
1.34641
1.34911
1.3521
1.35545
1.35919
1.3635
1.36838
1.37426
1.38092
1.32382
1.3238
1.32377
1.32374
1.3237
1.32366
1.32362
1.3236
1.32359
1.32362
1.32367
1.32377
1.32392
1.32412
1.32439
1.32473
1.32514
1.32564
1.32623
1.32693
1.32773
1.32865
1.32969
1.33088
1.33221
1.33369
1.33534
1.33712
1.33904
1.34112
1.34338
1.34584
1.34855
1.35154
1.3549
1.35868
1.36302
1.36796
1.3739
1.38064
1.3232
1.32319
1.32318
1.32316
1.32313
1.3231
1.32308
1.32307
1.32308
1.32311
1.32317
1.32328
1.32343
1.32364
1.3239
1.32424
1.32465
1.32514
1.32573
1.32641
1.3272
1.32811
1.32914
1.33031
1.33163
1.33309
1.33471
1.33646
1.33836
1.34042
1.34265
1.34511
1.34781
1.35082
1.35419
1.35799
1.36237
1.36736
1.37334
1.38016
1.32241
1.32241
1.32241
1.3224
1.32239
1.32237
1.32236
1.32237
1.32239
1.32243
1.32251
1.32262
1.32278
1.32299
1.32325
1.32359
1.324
1.32449
1.32507
1.32574
1.32652
1.32742
1.32844
1.3296
1.33089
1.33234
1.33393
1.33565
1.33752
1.33956
1.34178
1.34422
1.34693
1.34994
1.35332
1.35714
1.36155
1.36658
1.3726
1.37948
1.32144
1.32146
1.32147
1.32147
1.32147
1.32147
1.32148
1.32149
1.32153
1.32158
1.32167
1.32179
1.32196
1.32217
1.32244
1.32278
1.32319
1.32367
1.32425
1.32492
1.32569
1.32658
1.32759
1.32873
1.33001
1.33144
1.333
1.3347
1.33654
1.33855
1.34076
1.3432
1.3459
1.34891
1.3523
1.35614
1.36057
1.36563
1.37169
1.37862
1.32031
1.32034
1.32036
1.32038
1.32039
1.3204
1.32043
1.32046
1.3205
1.32057
1.32067
1.3208
1.32097
1.32119
1.32147
1.32181
1.32222
1.32271
1.32328
1.32395
1.32471
1.32559
1.32659
1.32772
1.32899
1.33039
1.33192
1.33359
1.33541
1.33741
1.3396
1.34203
1.34472
1.34774
1.35114
1.35499
1.35944
1.36453
1.37062
1.37758
1.31902
1.31905
1.31909
1.31912
1.31914
1.31917
1.31921
1.31925
1.31931
1.31939
1.3195
1.31964
1.31983
1.32006
1.32034
1.32068
1.3211
1.32158
1.32216
1.32282
1.32358
1.32446
1.32545
1.32656
1.32781
1.32919
1.3307
1.33234
1.33415
1.33612
1.33831
1.34072
1.34342
1.34643
1.34984
1.3537
1.35817
1.36329
1.3694
1.37639
1.31756
1.3176
1.31765
1.31769
1.31773
1.31777
1.31782
1.31788
1.31796
1.31805
1.31817
1.31833
1.31852
1.31876
1.31905
1.3194
1.31982
1.32031
1.32088
1.32154
1.32231
1.32317
1.32416
1.32526
1.32649
1.32785
1.32933
1.33096
1.33274
1.3347
1.33688
1.33928
1.34197
1.34499
1.34841
1.35228
1.35677
1.3619
1.36802
1.37504
1.31594
1.31599
1.31605
1.3161
1.31616
1.31621
1.31628
1.31635
1.31644
1.31655
1.31668
1.31685
1.31705
1.3173
1.3176
1.31796
1.31838
1.31888
1.31945
1.32012
1.32088
1.32174
1.32272
1.32381
1.32502
1.32636
1.32782
1.32943
1.3312
1.33315
1.33531
1.33771
1.3404
1.34342
1.34685
1.35073
1.35523
1.36038
1.36651
1.37355
1.31415
1.31422
1.31429
1.31435
1.31442
1.31449
1.31457
1.31466
1.31476
1.31488
1.31503
1.31521
1.31543
1.31569
1.316
1.31636
1.31679
1.31729
1.31787
1.31854
1.3193
1.32016
1.32113
1.32221
1.32341
1.32473
1.32618
1.32777
1.32952
1.33146
1.33362
1.33602
1.3387
1.34173
1.34516
1.34905
1.35356
1.35873
1.36487
1.37191
1.3122
1.31228
1.31236
1.31244
1.31252
1.3126
1.3127
1.3128
1.31291
1.31305
1.31321
1.31341
1.31364
1.31391
1.31423
1.31461
1.31505
1.31556
1.31614
1.31681
1.31757
1.31843
1.31939
1.32046
1.32165
1.32295
1.32439
1.32597
1.32771
1.32965
1.33179
1.33419
1.33688
1.3399
1.34334
1.34725
1.35177
1.35695
1.36309
1.37014
1.31009
1.31018
1.31027
1.31036
1.31046
1.31056
1.31066
1.31078
1.31091
1.31106
1.31124
1.31144
1.31169
1.31197
1.31231
1.31269
1.31314
1.31366
1.31425
1.31492
1.31569
1.31654
1.3175
1.31857
1.31974
1.32103
1.32245
1.32403
1.32577
1.32769
1.32984
1.33224
1.33493
1.33796
1.34141
1.34532
1.34986
1.35505
1.36119
1.36824
1.30782
1.30792
1.30802
1.30812
1.30823
1.30834
1.30846
1.30859
1.30874
1.3089
1.3091
1.30932
1.30957
1.30987
1.31022
1.31062
1.31108
1.3116
1.3122
1.31288
1.31365
1.31451
1.31546
1.31651
1.31768
1.31896
1.32038
1.32195
1.32368
1.32561
1.32776
1.33016
1.33285
1.33589
1.33935
1.34327
1.34782
1.35302
1.35916
1.3662
1.30538
1.30549
1.3056
1.30572
1.30584
1.30596
1.3061
1.30624
1.3064
1.30658
1.30679
1.30703
1.3073
1.30761
1.30797
1.30838
1.30885
1.30939
1.31
1.31068
1.31145
1.31231
1.31326
1.31431
1.31547
1.31675
1.31817
1.31973
1.32146
1.32339
1.32554
1.32795
1.33065
1.3337
1.33716
1.3411
1.34565
1.35087
1.357
1.36404
1.30277
1.3029
1.30302
1.30315
1.30328
1.30342
1.30357
1.30372
1.3039
1.3041
1.30432
1.30457
1.30486
1.30518
1.30556
1.30598
1.30647
1.30701
1.30763
1.30832
1.30909
1.30995
1.3109
1.31195
1.31311
1.31439
1.3158
1.31737
1.31911
1.32104
1.32319
1.3256
1.32832
1.33137
1.33485
1.3388
1.34337
1.34859
1.35472
1.36174
1.3
1.30014
1.30027
1.30041
1.30056
1.30071
1.30087
1.30104
1.30123
1.30144
1.30168
1.30194
1.30224
1.30259
1.30298
1.30341
1.30391
1.30447
1.3051
1.3058
1.30657
1.30743
1.30839
1.30944
1.3106
1.31188
1.3133
1.31487
1.31661
1.31855
1.32071
1.32313
1.32585
1.32892
1.33241
1.33638
1.34095
1.34618
1.35231
1.35932
1.29706
1.2972
1.29735
1.29751
1.29766
1.29782
1.298
1.29818
1.29839
1.29861
1.29886
1.29915
1.29946
1.29982
1.30022
1.30068
1.30119
1.30176
1.3024
1.3031
1.30389
1.30475
1.30571
1.30676
1.30793
1.30922
1.31064
1.31222
1.31397
1.31591
1.31809
1.32052
1.32326
1.32634
1.32985
1.33383
1.33841
1.34365
1.34977
1.35677
1.29395
1.2941
1.29426
1.29443
1.29459
1.29477
1.29495
1.29515
1.29537
1.29561
1.29588
1.29618
1.29651
1.29688
1.2973
1.29777
1.29829
1.29888
1.29952
1.30024
1.30103
1.30191
1.30287
1.30393
1.3051
1.3064
1.30783
1.30942
1.31118
1.31314
1.31533
1.31778
1.32053
1.32363
1.32715
1.33115
1.33574
1.34099
1.3471
1.35408
1.29066
1.29083
1.291
1.29117
1.29135
1.29154
1.29174
1.29195
1.29218
1.29244
1.29272
1.29303
1.29338
1.29377
1.2942
1.29469
1.29522
1.29582
1.29648
1.2972
1.29801
1.29889
1.29986
1.30094
1.30212
1.30343
1.30487
1.30647
1.30825
1.31022
1.31242
1.31489
1.31766
1.32078
1.32432
1.32833
1.33294
1.33819
1.34429
1.35126
1.2872
1.28737
1.28755
1.28774
1.28793
1.28813
1.28834
1.28857
1.28881
1.28908
1.28938
1.28971
1.29007
1.29048
1.29093
1.29143
1.29198
1.29258
1.29326
1.29399
1.29481
1.2957
1.29669
1.29778
1.29897
1.30029
1.30175
1.30337
1.30516
1.30715
1.30937
1.31186
1.31464
1.31778
1.32134
1.32537
1.32999
1.33525
1.34135
1.3483
1.28355
1.28374
1.28393
1.28412
1.28432
1.28454
1.28476
1.285
1.28526
1.28555
1.28586
1.2862
1.28658
1.287
1.28747
1.28798
1.28855
1.28917
1.28985
1.29061
1.29144
1.29235
1.29335
1.29445
1.29566
1.297
1.29847
1.30011
1.30192
1.30393
1.30617
1.30867
1.31149
1.31465
1.31823
1.32228
1.32691
1.33218
1.33827
1.34519
1.27972
1.27992
1.28012
1.28032
1.28053
1.28076
1.28099
1.28125
1.28152
1.28182
1.28215
1.28251
1.28291
1.28334
1.28383
1.28435
1.28493
1.28557
1.28627
1.28704
1.28789
1.28881
1.28983
1.29095
1.29218
1.29354
1.29503
1.29668
1.29851
1.30055
1.30281
1.30534
1.30817
1.31136
1.31496
1.31903
1.32368
1.32896
1.33504
1.34194
1.2757
1.27591
1.27612
1.27633
1.27656
1.27679
1.27704
1.27731
1.2776
1.27791
1.27825
1.27863
1.27904
1.2795
1.27999
1.28054
1.28113
1.28179
1.28251
1.28329
1.28416
1.2851
1.28614
1.28728
1.28853
1.2899
1.29142
1.2931
1.29495
1.29701
1.2993
1.30185
1.30471
1.30792
1.31154
1.31563
1.3203
1.32558
1.33166
1.33854
1.27149
1.2717
1.27192
1.27215
1.27238
1.27263
1.27289
1.27317
1.27348
1.27381
1.27416
1.27456
1.27499
1.27546
1.27597
1.27653
1.27715
1.27782
1.27856
1.27936
1.28024
1.28121
1.28227
1.28343
1.2847
1.2861
1.28764
1.28934
1.29122
1.2933
1.29561
1.29819
1.30108
1.30432
1.30797
1.31208
1.31676
1.32205
1.32812
1.33498
1.26707
1.2673
1.26753
1.26777
1.26801
1.26827
1.26855
1.26884
1.26916
1.2695
1.26988
1.27029
1.27073
1.27122
1.27175
1.27233
1.27296
1.27366
1.27442
1.27524
1.27615
1.27713
1.27821
1.27939
1.28069
1.28211
1.28368
1.2854
1.28731
1.28942
1.29176
1.29437
1.29729
1.30055
1.30423
1.30836
1.31305
1.31836
1.32442
1.33126
1.26246
1.2627
1.26294
1.26318
1.26344
1.26371
1.264
1.26431
1.26464
1.265
1.26539
1.26582
1.26628
1.26678
1.26733
1.26793
1.26859
1.2693
1.27008
1.27093
1.27186
1.27287
1.27397
1.27518
1.2765
1.27795
1.27954
1.28129
1.28323
1.28537
1.28774
1.29038
1.29332
1.29662
1.30032
1.30448
1.30918
1.3145
1.32055
1.32737
1.25764
1.25789
1.25813
1.25839
1.25866
1.25894
1.25925
1.25957
1.25992
1.26029
1.2607
1.26114
1.26162
1.26215
1.26272
1.26334
1.26402
1.26475
1.26555
1.26643
1.26737
1.26841
1.26954
1.27077
1.27212
1.27359
1.27522
1.277
1.27896
1.28113
1.28354
1.28621
1.28918
1.2925
1.29623
1.30041
1.30514
1.31046
1.31651
1.32331
1.25261
1.25286
1.25312
1.25339
1.25367
1.25397
1.25428
1.25462
1.25498
1.25538
1.2558
1.25626
1.25676
1.25731
1.2579
1.25854
1.25924
1.26
1.26083
1.26172
1.26269
1.26375
1.26491
1.26617
1.26754
1.26905
1.2707
1.27251
1.27451
1.27671
1.27915
1.28185
1.28486
1.28821
1.29196
1.29617
1.30091
1.30624
1.31228
1.31906
1.24736
1.24762
1.24789
1.24817
1.24846
1.24877
1.2491
1.24946
1.24984
1.25025
1.25069
1.25117
1.25169
1.25226
1.25288
1.25354
1.25426
1.25504
1.25589
1.25681
1.25781
1.2589
1.26008
1.26137
1.26277
1.26431
1.26599
1.26783
1.26986
1.2721
1.27457
1.2773
1.28034
1.28372
1.28751
1.29174
1.2965
1.30184
1.30787
1.31462
1.24189
1.24216
1.24244
1.24273
1.24304
1.24336
1.24371
1.24408
1.24448
1.24491
1.24537
1.24587
1.24641
1.247
1.24764
1.24833
1.24907
1.24988
1.25075
1.25169
1.25272
1.25383
1.25504
1.25636
1.25779
1.25936
1.26107
1.26295
1.26501
1.26728
1.26979
1.27255
1.27563
1.27904
1.28285
1.28711
1.29189
1.29723
1.30325
1.30999
1.23618
1.23647
1.23677
1.23707
1.23739
1.23773
1.23809
1.23848
1.23889
1.23934
1.23983
1.24035
1.24091
1.24152
1.24218
1.24289
1.24366
1.24449
1.24539
1.24636
1.24741
1.24855
1.24979
1.25114
1.2526
1.2542
1.25595
1.25786
1.25996
1.26226
1.2648
1.2676
1.27071
1.27416
1.278
1.28228
1.28707
1.29242
1.29844
1.30515
1.23024
1.23053
1.23085
1.23117
1.23151
1.23186
1.23224
1.23265
1.23308
1.23355
1.23405
1.2346
1.23518
1.23581
1.2365
1.23723
1.23802
1.23888
1.2398
1.2408
1.24188
1.24305
1.24432
1.2457
1.24719
1.24882
1.2506
1.25255
1.25468
1.25702
1.25959
1.26243
1.26557
1.26905
1.27292
1.27723
1.28204
1.2874
1.29341
1.3001
1.22405
1.22435
1.22468
1.22502
1.22537
1.22575
1.22615
1.22657
1.22703
1.22752
1.22804
1.2286
1.22921
1.22987
1.23057
1.23133
1.23215
1.23303
1.23398
1.235
1.23611
1.23731
1.23861
1.24002
1.24155
1.24322
1.24503
1.24701
1.24918
1.25156
1.25417
1.25704
1.26022
1.26373
1.26763
1.27196
1.27679
1.28216
1.28816
1.29482
1.2176
1.21792
1.21825
1.21861
1.21898
1.21938
1.21979
1.22024
1.22072
1.22123
1.22177
1.22236
1.22299
1.22367
1.22439
1.22518
1.22602
1.22693
1.22791
1.22896
1.2301
1.23133
1.23266
1.23411
1.23567
1.23737
1.23922
1.24124
1.24344
1.24586
1.24851
1.25142
1.25463
1.25817
1.2621
1.26646
1.2713
1.27668
1.28267
1.28931
1.2109
1.21122
1.21157
1.21193
1.21232
1.21274
1.21317
1.21364
1.21414
1.21467
1.21524
1.21585
1.2165
1.2172
1.21796
1.21877
1.21964
1.22057
1.22158
1.22267
1.22384
1.2251
1.22646
1.22794
1.22954
1.23127
1.23316
1.23522
1.23746
1.23991
1.2426
1.24555
1.24879
1.25237
1.25633
1.26071
1.26557
1.27096
1.27694
1.28356
1.20393
1.20426
1.20461
1.20499
1.20539
1.20582
1.20628
1.20677
1.20728
1.20784
1.20843
1.20907
1.20974
1.21047
1.21125
1.21209
1.21299
1.21395
1.21499
1.2161
1.21731
1.2186
1.22
1.22151
1.22315
1.22492
1.22684
1.22894
1.23122
1.23371
1.23643
1.23942
1.2427
1.24632
1.25031
1.25471
1.25959
1.26498
1.27095
1.27755
1.19669
1.19702
1.19738
1.19777
1.19819
1.19863
1.1991
1.19961
1.20015
1.20073
1.20134
1.202
1.2027
1.20346
1.20426
1.20513
1.20606
1.20705
1.20812
1.20927
1.2105
1.21183
1.21326
1.21481
1.21648
1.21829
1.22025
1.22238
1.22471
1.22724
1.23
1.23303
1.23634
1.23999
1.24401
1.24844
1.25333
1.25873
1.2647
1.27127
1.18916
1.1895
1.18987
1.19027
1.1907
1.19116
1.19165
1.19217
1.19273
1.19333
1.19397
1.19465
1.19538
1.19616
1.19699
1.19788
1.19884
1.19986
1.20096
1.20214
1.20341
1.20477
1.20624
1.20782
1.20953
1.21138
1.21338
1.21555
1.21791
1.22048
1.22329
1.22635
1.22971
1.23339
1.23744
1.24189
1.2468
1.2522
1.25816
1.26472
1.18134
1.18169
1.18207
1.18248
1.18292
1.18339
1.1839
1.18444
1.18502
1.18564
1.1863
1.187
1.18776
1.18856
1.18942
1.19034
1.19133
1.19238
1.19351
1.19473
1.19603
1.19742
1.19893
1.20055
1.20229
1.20418
1.20622
1.20843
1.21083
1.21344
1.21628
1.21938
1.22278
1.22649
1.23057
1.23505
1.23997
1.24538
1.25133
1.25786
1.17322
1.17358
1.17397
1.17439
1.17484
1.17533
1.17585
1.17641
1.17701
1.17765
1.17833
1.17906
1.17984
1.18067
1.18156
1.1825
1.18352
1.1846
1.18576
1.18701
1.18834
1.18977
1.19131
1.19297
1.19475
1.19668
1.19876
1.20101
1.20345
1.20609
1.20898
1.21212
1.21555
1.21929
1.2234
1.2279
1.23284
1.23825
1.2442
1.2507
1.16479
1.16516
1.16556
1.16599
1.16646
1.16696
1.1675
1.16808
1.16869
1.16935
1.17006
1.17081
1.17161
1.17247
1.17338
1.17436
1.1754
1.17651
1.1777
1.17898
1.18035
1.18181
1.18339
1.18508
1.1869
1.18886
1.19098
1.19327
1.19575
1.19844
1.20136
1.20454
1.208
1.21178
1.21591
1.22044
1.22539
1.23081
1.23674
1.24323
1.15604
1.15642
1.15683
1.15728
1.15776
1.15828
1.15883
1.15943
1.16006
1.16074
1.16147
1.16224
1.16307
1.16395
1.16489
1.16589
1.16696
1.1681
1.16933
1.17064
1.17204
1.17354
1.17515
1.17687
1.17873
1.18073
1.18289
1.18522
1.18773
1.19046
1.19342
1.19663
1.20013
1.20394
1.2081
1.21264
1.21761
1.22303
1.22896
1.23541
1.14695
1.14734
1.14777
1.14823
1.14873
1.14926
1.14983
1.15045
1.1511
1.1518
1.15255
1.15334
1.15419
1.1551
1.15606
1.15709
1.15819
1.15937
1.16062
1.16196
1.16339
1.16493
1.16657
1.16834
1.17023
1.17227
1.17446
1.17683
1.17938
1.18215
1.18514
1.18839
1.19192
1.19576
1.19995
1.20451
1.20948
1.21491
1.22082
1.22726
1.13751
1.13792
1.13836
1.13883
1.13935
1.1399
1.14049
1.14112
1.14179
1.14251
1.14328
1.1441
1.14497
1.1459
1.1469
1.14795
1.14908
1.15028
1.15157
1.15294
1.15441
1.15597
1.15765
1.15945
1.16138
1.16346
1.16569
1.16809
1.17069
1.17349
1.17652
1.1798
1.18337
1.18724
1.19144
1.19602
1.20101
1.20643
1.21233
1.21874
1.1277
1.12812
1.12857
1.12906
1.12959
1.13016
1.13077
1.13142
1.13211
1.13285
1.13364
1.13449
1.13539
1.13634
1.13736
1.13845
1.1396
1.14084
1.14215
1.14356
1.14506
1.14666
1.14837
1.15021
1.15218
1.15429
1.15656
1.159
1.16163
1.16447
1.16754
1.17085
1.17445
1.17834
1.18257
1.18717
1.19216
1.19758
1.20347
1.20985
1.11748
1.11791
1.11838
1.11889
1.11944
1.12002