/*--------------------------------*- C++ -*----------------------------------*\
| =========                 |                                                 |
| \\      /  F ield         | OpenFOAM: The Open Source CFD Toolbox           |
|  \\    /   O peration     | Version:  2006                                  |
|   \\  /    A nd           | Website:  www.openfoam.com                      |
|    \\/     M anipulation  |                                                 |
\*---------------------------------------------------------------------------*/
FoamFile
{
    version     2.0;
    format      ascii;
    class       volScalarField;
    location    "6000";
    object      nut;
}
// * * * * * * * * * * * * * * * * * * * * * * * * * * * * * * * * * * * * * //

dimensions      [0 2 -1 0 0 0 0];


internalField   nonuniform List<scalar> 
72100
(
1.37186e-09
1.36568e-09
1.35827e-09
1.35038e-09
1.34033e-09
1.32919e-09
1.31702e-09
1.30398e-09
1.29011e-09
1.27547e-09
1.26005e-09
1.24386e-09
1.22687e-09
1.20907e-09
1.19041e-09
1.17085e-09
1.15036e-09
1.12889e-09
1.10639e-09
1.08279e-09
1.05804e-09
1.03206e-09
1.00476e-09
9.76077e-10
9.45887e-10
9.14115e-10
8.80589e-10
8.4525e-10
8.07738e-10
7.68284e-10
7.26204e-10
6.82329e-10
6.34741e-10
5.86241e-10
5.31543e-10
4.79213e-10
4.14519e-10
3.62456e-10
2.81744e-10
2.43969e-10
7.11987e-09
7.11201e-09
7.10812e-09
7.0924e-09
7.06897e-09
7.04093e-09
7.00888e-09
6.97332e-09
6.93452e-09
6.89257e-09
6.84746e-09
6.79915e-09
6.74754e-09
6.69249e-09
6.6339e-09
6.57164e-09
6.50559e-09
6.43561e-09
6.36152e-09
6.28313e-09
6.20023e-09
6.11256e-09
6.01984e-09
5.92177e-09
5.81794e-09
5.70797e-09
5.59127e-09
5.4667e-09
5.33353e-09
5.19182e-09
5.0404e-09
4.87907e-09
4.705e-09
4.51898e-09
4.31451e-09
4.09686e-09
3.85236e-09
3.59614e-09
3.29846e-09
2.98263e-09
1.25994e-07
1.26302e-07
1.26366e-07
1.26183e-07
1.25878e-07
1.25498e-07
1.25055e-07
1.24554e-07
1.24e-07
1.23396e-07
1.22739e-07
1.2203e-07
1.21266e-07
1.20446e-07
1.19566e-07
1.18626e-07
1.17623e-07
1.16555e-07
1.1542e-07
1.14214e-07
1.12934e-07
1.11576e-07
1.10134e-07
1.08605e-07
1.06981e-07
1.05256e-07
1.0342e-07
1.01449e-07
9.93349e-08
9.7074e-08
9.46535e-08
9.20537e-08
8.92483e-08
8.62031e-08
8.28738e-08
7.92174e-08
7.52071e-08
7.07111e-08
6.5842e-08
5.97845e-08
8.99685e-07
9.03878e-07
9.04613e-07
9.03544e-07
9.01685e-07
8.9935e-07
8.96609e-07
8.93507e-07
8.90069e-07
8.86301e-07
8.82196e-07
8.77747e-07
8.72939e-07
8.67754e-07
8.62179e-07
8.562e-07
8.49803e-07
8.4297e-07
8.35683e-07
8.2792e-07
8.19653e-07
8.10855e-07
8.01492e-07
7.91524e-07
7.80906e-07
7.69586e-07
7.57495e-07
7.44458e-07
7.30413e-07
7.15329e-07
6.99112e-07
6.81598e-07
6.62612e-07
6.41846e-07
6.19037e-07
5.93717e-07
5.65878e-07
5.34115e-07
4.99878e-07
4.55719e-07
3.39398e-06
3.41212e-06
3.4157e-06
3.41289e-06
3.40755e-06
3.4008e-06
3.39285e-06
3.38383e-06
3.37383e-06
3.36283e-06
3.3508e-06
3.3377e-06
3.32347e-06
3.30805e-06
3.29139e-06
3.27342e-06
3.25409e-06
3.23335e-06
3.21111e-06
3.18731e-06
3.16183e-06
3.13458e-06
3.10543e-06
3.07423e-06
3.04081e-06
3.00499e-06
2.96648e-06
2.92462e-06
2.8792e-06
2.83006e-06
2.77684e-06
2.71885e-06
2.65543e-06
2.58525e-06
2.50738e-06
2.41956e-06
2.32218e-06
2.20835e-06
2.0854e-06
1.919e-06
8.32326e-06
8.36093e-06
8.36965e-06
8.36538e-06
8.35613e-06
8.34443e-06
8.33067e-06
8.31515e-06
8.29798e-06
8.2791e-06
8.25843e-06
8.23584e-06
8.21118e-06
8.18429e-06
8.15503e-06
8.1233e-06
8.08896e-06
8.05187e-06
8.01188e-06
7.96879e-06
7.9224e-06
7.87246e-06
7.81872e-06
7.76083e-06
7.69841e-06
7.63103e-06
7.55809e-06
7.47795e-06
7.39016e-06
7.29436e-06
7.18969e-06
7.07445e-06
6.94707e-06
6.80412e-06
6.64342e-06
6.45892e-06
6.25181e-06
6.00328e-06
5.73276e-06
5.3471e-06
1.54772e-05
1.55262e-05
1.55389e-05
1.55334e-05
1.55208e-05
1.55052e-05
1.5487e-05
1.54669e-05
1.54449e-05
1.5421e-05
1.5395e-05
1.53665e-05
1.53354e-05
1.53014e-05
1.52641e-05
1.52234e-05
1.51792e-05
1.51311e-05
1.50788e-05
1.50222e-05
1.49608e-05
1.48944e-05
1.48223e-05
1.47443e-05
1.46595e-05
1.45673e-05
1.44668e-05
1.43549e-05
1.4231e-05
1.40947e-05
1.39444e-05
1.37773e-05
1.35906e-05
1.33783e-05
1.31364e-05
1.28543e-05
1.25335e-05
1.21405e-05
1.17078e-05
1.10659e-05
2.4301e-05
2.43406e-05
2.43448e-05
2.43392e-05
2.43273e-05
2.43138e-05
2.42929e-05
2.42692e-05
2.42443e-05
2.42178e-05
2.41894e-05
2.41588e-05
2.41255e-05
2.4089e-05
2.4049e-05
2.40052e-05
2.39572e-05
2.39048e-05
2.38475e-05
2.3785e-05
2.37167e-05
2.36423e-05
2.3561e-05
2.34722e-05
2.33751e-05
2.32688e-05
2.31518e-05
2.30192e-05
2.28703e-05
2.27049e-05
2.2521e-05
2.23146e-05
2.20815e-05
2.18133e-05
2.1503e-05
2.11369e-05
2.07148e-05
2.01911e-05
1.96057e-05
1.87197e-05
3.39183e-05
3.39234e-05
3.3915e-05
3.38996e-05
3.3879e-05
3.38573e-05
3.38359e-05
3.38157e-05
3.3797e-05
3.37795e-05
3.37627e-05
3.37459e-05
3.37285e-05
3.37098e-05
3.36892e-05
3.36663e-05
3.36406e-05
3.36117e-05
3.35791e-05
3.35425e-05
3.35013e-05
3.3455e-05
3.3403e-05
3.33446e-05
3.32788e-05
3.32048e-05
3.31215e-05
3.29878e-05
3.28221e-05
3.26363e-05
3.24274e-05
3.21908e-05
3.19204e-05
3.16058e-05
3.12353e-05
3.07942e-05
3.02781e-05
2.96337e-05
2.88996e-05
2.7786e-05
4.46573e-05
4.46441e-05
4.46183e-05
4.45867e-05
4.45506e-05
4.45142e-05
4.44806e-05
4.44505e-05
4.44239e-05
4.44004e-05
4.43794e-05
4.436e-05
4.43413e-05
4.43225e-05
4.43028e-05
4.42813e-05
4.42574e-05
4.42306e-05
4.42001e-05
4.41654e-05
4.41259e-05
4.40806e-05
4.40289e-05
4.39697e-05
4.3902e-05
4.38245e-05
4.37355e-05
4.36274e-05
4.34968e-05
4.3345e-05
4.31674e-05
4.29625e-05
4.27167e-05
4.24095e-05
4.19802e-05
4.14662e-05
4.08552e-05
4.00914e-05
3.9201e-05
3.78675e-05
5.65239e-05
5.64951e-05
5.64485e-05
5.63947e-05
5.63365e-05
5.62786e-05
5.62245e-05
5.61757e-05
5.61322e-05
5.60938e-05
5.60597e-05
5.60287e-05
5.60002e-05
5.59729e-05
5.59455e-05
5.5917e-05
5.58864e-05
5.58529e-05
5.58157e-05
5.57738e-05
5.57264e-05
5.56724e-05
5.56106e-05
5.55399e-05
5.54587e-05
5.53653e-05
5.52569e-05
5.51344e-05
5.499e-05
5.48206e-05
5.4619e-05
5.43839e-05
5.40972e-05
5.37604e-05
5.33219e-05
5.28141e-05
5.21268e-05
5.13231e-05
5.02318e-05
4.87087e-05
6.94515e-05
6.94083e-05
6.93384e-05
6.92573e-05
6.91706e-05
6.90838e-05
6.90014e-05
6.89254e-05
6.88564e-05
6.87943e-05
6.87384e-05
6.86875e-05
6.86413e-05
6.85978e-05
6.85551e-05
6.8512e-05
6.84674e-05
6.842e-05
6.83689e-05
6.83128e-05
6.82503e-05
6.81802e-05
6.81008e-05
6.80108e-05
6.79082e-05
6.77905e-05
6.76538e-05
6.74998e-05
6.73214e-05
6.71132e-05
6.68655e-05
6.65759e-05
6.62223e-05
6.58115e-05
6.52905e-05
6.46926e-05
6.38661e-05
6.29685e-05
6.15718e-05
6.01496e-05
8.33699e-05
8.33146e-05
8.322e-05
8.31085e-05
8.2988e-05
8.28661e-05
8.2748e-05
8.26368e-05
8.25339e-05
8.24394e-05
8.23528e-05
8.22732e-05
8.22008e-05
8.21323e-05
8.20655e-05
8.1999e-05
8.19317e-05
8.18621e-05
8.17886e-05
8.17099e-05
8.16241e-05
8.15295e-05
8.1424e-05
8.13063e-05
8.11735e-05
8.10223e-05
8.08478e-05
8.06502e-05
8.04238e-05
8.01626e-05
7.98541e-05
7.94945e-05
7.90583e-05
7.85512e-05
7.79155e-05
7.71872e-05
7.61915e-05
7.51151e-05
7.34272e-05
7.1829e-05
9.81812e-05
9.81156e-05
9.79975e-05
9.78565e-05
9.77019e-05
9.75433e-05
9.73867e-05
9.72365e-05
9.70948e-05
9.69624e-05
9.68391e-05
9.67243e-05
9.66175e-05
9.65145e-05
9.6414e-05
9.63148e-05
9.62153e-05
9.6114e-05
9.60089e-05
9.58981e-05
9.57795e-05
9.56509e-05
9.55097e-05
9.53548e-05
9.51817e-05
9.49861e-05
9.47624e-05
9.45097e-05
9.42227e-05
9.38951e-05
9.35128e-05
9.30704e-05
9.25387e-05
9.19207e-05
9.1152e-05
9.02709e-05
8.90867e-05
8.77944e-05
8.58098e-05
8.39105e-05
0.000113669
0.000113591
0.00011346
0.000113303
0.000113129
0.000112947
0.000112764
0.000112586
0.000112415
0.000112253
0.000112099
0.000111953
0.000111807
0.000111663
0.000111522
0.000111383
0.000111244
0.000111104
0.000110959
0.000110808
0.000110649
0.000110478
0.000110293
0.000110091
0.000109867
0.000109615
0.00010933
0.000109011
0.00010865
0.000108242
0.000107774
0.000107237
0.000106598
0.000105857
0.000104942
0.000103893
0.000102505
0.000100977
9.86839e-05
9.64376e-05
0.000129257
0.000129169
0.000129063
0.000128937
0.000128795
0.000128645
0.000128493
0.000128341
0.000128192
0.000128046
0.000127905
0.000127765
0.000127586
0.000127408
0.000127233
0.000127059
0.000126884
0.000126707
0.000126525
0.000126336
0.000126137
0.000125924
0.000125696
0.000125441
0.000125158
0.000124842
0.000124489
0.000124094
0.000123648
0.000123147
0.00012258
0.000121938
0.000121181
0.000120307
0.000119235
0.000118006
0.000116401
0.000114623
0.000112009
0.000109399
0.000145435
0.000145332
0.000145207
0.000145058
0.000144893
0.000144717
0.000144536
0.000144355
0.000144176
0.000144
0.000143828
0.000143658
0.000143491
0.000143325
0.000143158
0.000142988
0.000142815
0.000142636
0.000142449
0.000142252
0.000142043
0.000141819
0.000141577
0.000141279
0.000140944
0.000140574
0.000140163
0.000139699
0.000139164
0.00013856
0.000137887
0.00013713
0.000136247
0.000135231
0.000133992
0.000132572
0.000130739
0.000128701
0.000125752
0.000122773
0.000162196
0.000162079
0.000161936
0.000161765
0.000161576
0.000161373
0.000161163
0.000160951
0.00016074
0.00016053
0.000160324
0.00016012
0.000159918
0.000159717
0.000159515
0.00015931
0.000159101
0.000158886
0.000158663
0.000158429
0.000158181
0.000157918
0.000157635
0.00015733
0.000156997
0.000156632
0.000156229
0.000155743
0.000155142
0.00015444
0.000153658
0.000152783
0.000151766
0.000150599
0.000149184
0.000147564
0.000145491
0.000143184
0.000139886
0.000136537
0.000179527
0.000179399
0.000179238
0.000179047
0.000178833
0.000178603
0.000178363
0.000178119
0.000177873
0.000177628
0.000177385
0.000177144
0.000176904
0.000176664
0.000176423
0.000176179
0.00017593
0.000175674
0.000175409
0.000175133
0.000174842
0.000174534
0.000174204
0.00017385
0.000173466
0.000173046
0.000172586
0.000172076
0.000171508
0.000170753
0.000169867
0.000168871
0.000167715
0.00016639
0.000164792
0.000162964
0.000160641
0.000158055
0.000154396
0.000150674
0.000197421
0.000197283
0.000197106
0.000196894
0.000196656
0.000196398
0.000196128
0.000195851
0.00019557
0.000195288
0.000195006
0.000194724
0.000194443
0.000194161
0.000193877
0.000193589
0.000193296
0.000192995
0.000192685
0.000192361
0.000192022
0.000191663
0.000191282
0.000190873
0.000190432
0.000189953
0.000189428
0.00018885
0.000188209
0.000187474
0.000186497
0.000185382
0.000184083
0.000182594
0.000180804
0.00017876
0.000176177
0.000173305
0.000169269
0.000165172
0.000215871
0.000215725
0.000215533
0.000215301
0.000215039
0.000214755
0.000214454
0.000214143
0.000213826
0.000213505
0.000213182
0.000212858
0.000212533
0.000212206
0.000211876
0.000211541
0.000211199
0.000210849
0.000210488
0.000210113
0.00020972
0.000209307
0.000208868
0.0002084
0.000207896
0.000207351
0.000206756
0.000206104
0.000205384
0.000204581
0.000203542
0.000202309
0.000200863
0.000199203
0.000197214
0.000194946
0.000192095
0.000188927
0.000184502
0.000180024
0.000234875
0.000234721
0.000234515
0.000234265
0.00023398
0.000233668
0.000233337
0.000232992
0.000232637
0.000232277
0.000231912
0.000231544
0.000231172
0.000230798
0.000230418
0.000230033
0.00022964
0.000229237
0.000228821
0.000228389
0.000227939
0.000227465
0.000226964
0.000226431
0.00022586
0.000225243
0.000224574
0.000223841
0.000223036
0.00022214
0.00022101
0.000219653
0.000218055
0.000216218
0.000214023
0.000211522
0.000208392
0.00020492
0.00020009
0.000195226
0.000254429
0.000254269
0.00025405
0.000253782
0.000253475
0.000253137
0.000252775
0.000252396
0.000252004
0.000251603
0.000251195
0.000250781
0.000250362
0.000249937
0.000249506
0.000249068
0.00024862
0.00024816
0.000247685
0.000247193
0.000246681
0.000246143
0.000245575
0.000244972
0.000244328
0.000243635
0.000242884
0.000242066
0.00024117
0.000240176
0.000238918
0.000237423
0.000235664
0.000233643
0.000231232
0.000228491
0.000225071
0.000221286
0.000216036
0.000210778
0.000274534
0.000274368
0.000274138
0.000273853
0.000273524
0.00027316
0.000272768
0.000272355
0.000271926
0.000271484
0.000271032
0.000270571
0.000270103
0.000269627
0.000269142
0.000268647
0.000268141
0.000267621
0.000267085
0.000266529
0.00026595
0.000265344
0.000264704
0.000264027
0.000263305
0.000262531
0.000261694
0.000260786
0.000259792
0.000258694
0.000257283
0.000255632
0.0002537
0.000251485
0.000248849
0.000245858
0.000242136
0.000238028
0.000232342
0.000226679
0.00029519
0.000295018
0.000294777
0.000294477
0.000294127
0.000293738
0.000293317
0.00029287
0.000292404
0.000291921
0.000291424
0.000290916
0.000290397
0.000289868
0.000289327
0.000288775
0.000288208
0.000287626
0.000287025
0.000286402
0.000285753
0.000285073
0.000284359
0.000283603
0.000282799
0.000281938
0.000281011
0.000280006
0.000278911
0.000277703
0.00027612
0.000274296
0.000272176
0.000269755
0.000266883
0.000263631
0.000259596
0.000255152
0.000249013
0.000242934
0.000316397
0.000316221
0.00031597
0.000315654
0.000315285
0.000314872
0.000314422
0.000313943
0.000313439
0.000312915
0.000312374
0.000311818
0.000311248
0.000310664
0.000310066
0.000309454
0.000308825
0.000308178
0.000307509
0.000306816
0.000306094
0.000305338
0.000304545
0.000303706
0.000302815
0.000301864
0.000300842
0.000299736
0.000298534
0.00029721
0.000295443
0.00029343
0.000291106
0.000288467
0.000285345
0.000281821
0.000277457
0.000272666
0.000266054
0.000259547
0.000338157
0.000337977
0.000337717
0.000337388
0.000337
0.000336563
0.000336085
0.000335573
0.000335033
0.000334469
0.000333883
0.000333279
0.000332657
0.000332019
0.000331363
0.000330689
0.000329996
0.000329282
0.000328543
0.000327777
0.000326979
0.000326145
0.000325268
0.000324344
0.000323363
0.000322317
0.000321195
0.000319984
0.000318671
0.000317225
0.00031526
0.000313046
0.000310505
0.000307633
0.000304248
0.000300438
0.000295731
0.000290578
0.000283471
0.000276521
0.000360474
0.00036029
0.000360022
0.000359679
0.000359273
0.000358814
0.000358309
0.000357766
0.00035719
0.000356585
0.000355955
0.000355303
0.000354629
0.000353935
0.000353221
0.000352485
0.000351727
0.000350944
0.000350133
0.000349292
0.000348416
0.000347499
0.000346538
0.000345523
0.000344449
0.000343304
0.000342079
0.000340759
0.00033933
0.000337745
0.00033558
0.000333156
0.000330386
0.000327268
0.000323605
0.000319495
0.000314426
0.000308896
0.000301274
0.000293863
0.00038335
0.000383163
0.000382887
0.000382532
0.000382109
0.000381627
0.000381096
0.000380522
0.000379911
0.000379266
0.000378593
0.000377893
0.000377168
0.000376418
0.000375644
0.000374846
0.000374021
0.000373168
0.000372284
0.000371366
0.000370409
0.000369409
0.000368359
0.000367252
0.000366081
0.000364835
0.000363503
0.00036207
0.000360521
0.000358769
0.000356409
0.000353769
0.000350761
0.000347384
0.000343429
0.000339003
0.000333556
0.000327631
0.000319468
0.00031158
0.000406788
0.000406597
0.000406314
0.000405947
0.000405508
0.000405006
0.000404449
0.000403845
0.000403199
0.000402517
0.0004018
0.000401053
0.000400276
0.000399471
0.000398638
0.000397776
0.000396884
0.000395961
0.000395002
0.000394006
0.000392967
0.00039188
0.00039074
0.000389539
0.000388268
0.000386917
0.000385475
0.000383926
0.000382253
0.000380318
0.000377757
0.000374897
0.00037164
0.000367993
0.000363731
0.000358974
0.000353128
0.000346791
0.000338062
0.000329676
0.00043079
0.000430598
0.000430308
0.00042993
0.000429475
0.000428953
0.000428372
0.000427739
0.00042706
0.000426339
0.00042558
0.000424786
0.000423958
0.000423098
0.000422205
0.00042128
0.000420321
0.000419326
0.000418293
0.000417217
0.000416094
0.00041492
0.000413688
0.00041239
0.000411017
0.00040956
0.000408005
0.000406336
0.000404537
0.000402408
0.000399637
0.000396547
0.000393034
0.000389105
0.000384523
0.000379419
0.000373155
0.000366386
0.000357063
0.000348158
0.000455362
0.000455167
0.000454871
0.000454483
0.000454014
0.000453472
0.000452867
0.000452206
0.000451494
0.000450736
0.000449936
0.000449096
0.000448218
0.000447303
0.000446352
0.000445363
0.000444337
0.00044327
0.000442161
0.000441005
0.000439798
0.000438535
0.000437209
0.000435813
0.000434337
0.00043277
0.0004311
0.00042931
0.000427381
0.000425048
0.000422057
0.00041873
0.000414951
0.00041073
0.000405813
0.000400347
0.000393644
0.000386424
0.000376479
0.000367032
0.000480506
0.000480309
0.000480007
0.00047961
0.000479126
0.000478567
0.000477939
0.000477251
0.000476507
0.000475713
0.000474872
0.000473986
0.000473059
0.00047209
0.00047108
0.000470029
0.000468936
0.000467798
0.000466612
0.000465376
0.000464084
0.000462732
0.000461311
0.000459815
0.000458234
0.000456557
0.00045477
0.000452856
0.000450794
0.000448246
0.000445028
0.000441454
0.000437399
0.000432876
0.000427609
0.000421766
0.000414603
0.00040691
0.000396315
0.000386303
0.000506226
0.000506028
0.00050572
0.000505314
0.000504817
0.00050424
0.000503591
0.000502876
0.000502101
0.000501272
0.000500391
0.000499462
0.000498486
0.000497464
0.000496396
0.000495283
0.000494123
0.000492913
0.000491652
0.000490335
0.000488958
0.000487516
0.000486
0.000484404
0.000482717
0.000480927
0.000479022
0.000476982
0.000474786
0.00047201
0.000468558
0.000464729
0.000460387
0.000455549
0.000449919
0.000443682
0.000436037
0.000427852
0.000416576
0.000405975
0.000532526
0.000532326
0.000532014
0.000531598
0.000531089
0.000530495
0.000529825
0.000529085
0.000528281
0.000527417
0.000526498
0.000525525
0.000524501
0.000523427
0.000522303
0.000521128
0.000519902
0.000518622
0.000517285
0.000515888
0.000514426
0.000512893
0.000511282
0.000509585
0.000507791
0.000505889
0.000503863
0.000501697
0.000499364
0.000496346
0.000492655
0.000488561
0.000483921
0.000478756
0.000472746
0.0004661
0.000457951
0.000449251
0.000437266
0.000426051
0.000559408
0.000559207
0.000558891
0.000558467
0.000557946
0.000557337
0.000556646
0.000555882
0.000555049
0.000554152
0.000553195
0.00055218
0.00055111
0.000549984
0.000548804
0.000547569
0.000546277
0.000544927
0.000543516
0.000542039
0.000540492
0.000538869
0.000537163
0.000535364
0.000533463
0.000531448
0.000529302
0.000527008
0.000524536
0.000521263
0.000517325
0.000512956
0.000508006
0.0005025
0.000496096
0.000489022
0.000480348
0.000471111
0.000458387
0.000446532
0.000586877
0.000586675
0.000586354
0.000585923
0.000585391
0.000584767
0.000584057
0.000583269
0.000582408
0.000581479
0.000580486
0.00057943
0.000578314
0.000577138
0.000575903
0.000574609
0.000573253
0.000571834
0.000570348
0.000568793
0.000567161
0.000565449
0.000563647
0.000561748
0.00055974
0.000557611
0.000555345
0.000552922
0.00055031
0.000546767
0.000542572
0.000537917
0.000532645
0.000526785
0.000519969
0.000512451
0.000503228
0.000493432
0.000479938
0.000467419
0.000614934
0.000614732
0.000614408
0.00061397
0.000613427
0.000612788
0.00061206
0.00061125
0.000610362
0.000609403
0.000608373
0.000607278
0.000606117
0.000604893
0.000603604
0.000602251
0.000600832
0.000599345
0.000597787
0.000596153
0.000594439
0.000592637
0.000590741
0.000588742
0.000586627
0.000584385
0.000581998
0.000579446
0.000576692
0.000572862
0.000568398
0.000563446
0.000557838
0.000551611
0.000544367
0.000536385
0.000526589
0.000516212
0.00050192
0.00048871
0.000643584
0.000643381
0.000643054
0.00064261
0.000642057
0.000641404
0.000640659
0.000639827
0.000638914
0.000637924
0.000636861
0.000635726
0.000634523
0.00063325
0.00063191
0.0006305
0.000629019
0.000627465
0.000625835
0.000624124
0.000622327
0.000620438
0.000618449
0.00061635
0.000614129
0.000611774
0.000609267
0.000606585
0.000603687
0.000599545
0.0005948
0.00058954
0.000583586
0.000576977
0.000569286
0.000560823
0.00055043
0.000539448
0.000524327
0.000510402
0.000672827
0.000672624
0.000672294
0.000671845
0.000671283
0.000670617
0.000669855
0.000669003
0.000668065
0.000667046
0.00066595
0.000664778
0.000663533
0.000662214
0.000660822
0.000659357
0.000657815
0.000656196
0.000654495
0.000652709
0.000650831
0.000648855
0.000646774
0.000644576
0.000642251
0.000639783
0.000637157
0.000634346
0.000631299
0.000626807
0.000621773
0.000616197
0.000609883
0.000602879
0.000594724
0.00058576
0.000574745
0.000563134
0.000547157
0.00053249
0.000702666
0.000702464
0.000702132
0.000701677
0.000701107
0.000700429
0.000699651
0.000698779
0.000697818
0.000696771
0.000695643
0.000694435
0.000693149
0.000691785
0.000690344
0.000688824
0.000687224
0.000685541
0.000683771
0.00068191
0.000679953
0.000677892
0.000675719
0.000673425
0.000670996
0.000668418
0.000665672
0.000662732
0.000659404
0.000654634
0.000649311
0.000643412
0.000636727
0.000629313
0.000620675
0.00061119
0.000599528
0.000587264
0.000570401
0.000554969
0.000733103
0.000732902
0.000732568
0.000732108
0.000731531
0.000730842
0.000730049
0.000729158
0.000728174
0.000727101
0.000725942
0.000724699
0.000723374
0.000721966
0.000720477
0.000718904
0.000717247
0.000715501
0.000713664
0.000711731
0.000709696
0.000707551
0.000705289
0.000702899
0.000700367
0.00069768
0.000694816
0.000691747
0.000688029
0.000683023
0.000677411
0.00067118
0.000664112
0.000656272
0.000647133
0.000637105
0.000624771
0.000611829
0.000594054
0.000577831
0.000764138
0.000763938
0.000763603
0.00076314
0.000762555
0.000761856
0.000761049
0.00076014
0.000759135
0.000758036
0.000756848
0.000755571
0.000754208
0.000752758
0.000751222
0.000749599
0.000747885
0.000746079
0.000744176
0.000742172
0.000740061
0.000737835
0.000735485
0.000733001
0.000730369
0.000727573
0.000724592
0.000721394
0.000717252
0.000711986
0.000706072
0.000699497
0.000692031
0.000683749
0.000674088
0.000663497
0.000650464
0.000636819
0.000618105
0.000601066
0.000795771
0.000795574
0.000795238
0.000794772
0.00079418
0.000793472
0.000792652
0.000791727
0.000790701
0.000789578
0.000788361
0.000787052
0.000785652
0.000784162
0.000782581
0.000780908
0.00077914
0.000777275
0.000775308
0.000773236
0.00077105
0.000768744
0.000766308
0.000763732
0.000761001
0.000758099
0.000755003
0.000751674
0.0007471
0.000741535
0.000735297
0.00072836
0.000720479
0.000711736
0.000701532
0.000690355
0.000676597
0.000662223
0.000642544
0.000624666
0.000828004
0.000827808
0.000827473
0.000827004
0.000826407
0.000825689
0.000824857
0.000823917
0.000822871
0.000821725
0.000820482
0.000819142
0.000817707
0.000816178
0.000814553
0.000812832
0.000811012
0.00080909
0.000807061
0.000804921
0.000802664
0.00080028
0.000797761
0.000795094
0.000792267
0.00078926
0.000786049
0.000782589
0.000777567
0.000771673
0.000765082
0.000757763
0.000749447
0.000740224
0.000729453
0.000717666
0.000703156
0.000688027
0.000667359
0.000648618
0.000860833
0.000860641
0.000860306
0.000859835
0.000859233
0.000858508
0.000857665
0.00085671
0.000855646
0.000854479
0.000853209
0.00085184
0.000850372
0.000848805
0.000847138
0.000845371
0.0008435
0.000841523
0.000839435
0.00083723
0.000834902
0.000832442
0.000829842
0.000827087
0.000824165
0.000821055
0.000817731
0.000814136
0.000808619
0.000802382
0.00079542
0.000787699
0.000778926
0.000769201
0.00075784
0.000745419
0.000730127
0.000714218
0.000692539
0.000672912
0.000894258
0.00089407
0.000893736
0.000893264
0.000892659
0.000891926
0.000891073
0.000890104
0.000889024
0.000887836
0.000886542
0.000885145
0.000883645
0.000882042
0.000880335
0.000878523
0.000876604
0.000874573
0.000872427
0.00087016
0.000867764
0.000865231
0.000862551
0.000859711
0.000856696
0.000853485
0.000850048
0.000846134
0.00084021
0.000833638
0.000826294
0.000818153
0.000808903
0.000798654
0.000786678
0.000773596
0.000757497
0.00074078
0.000718068
0.000697534
0.000928276
0.000928092
0.000927761
0.000927288
0.00092668
0.000925942
0.000925079
0.000924098
0.000923002
0.000921795
0.000920478
0.000919054
0.000917524
0.000915886
0.000914141
0.000912287
0.000910321
0.00090824
0.000906038
0.000903709
0.000901248
0.000898644
0.000895887
0.000892964
0.000889859
0.000886548
0.000882997
0.000878482
0.000872308
0.000865414
0.000857683
0.000849108
0.000839362
0.000828566
0.00081595
0.000802182
0.000785248
0.000767697
0.000743933
0.00072247
0.000962884
0.000962705
0.000962377
0.000961905
0.000961294
0.000960551
0.000959681
0.000958688
0.000957578
0.000956352
0.000955014
0.000953565
0.000952006
0.000950336
0.000948555
0.00094666
0.000944649
0.000942519
0.000940263
0.000937877
0.000935352
0.000932679
0.000929848
0.000926845
0.000923651
0.000920242
0.000916576
0.00091138
0.000904916
0.00089769
0.000889565
0.000880543
0.000870282
0.000858918
0.000845637
0.000831157
0.000813361
0.000794951
0.000770117
0.000747706
0.000998077
0.000997905
0.00099758
0.000997109
0.000996497
0.00099575
0.000994873
0.00099387
0.000992747
0.000991505
0.000990147
0.000988674
0.000987088
0.000985387
0.000983571
0.000981638
0.000979584
0.000977407
0.0009751
0.000972658
0.000970072
0.000967334
0.000964431
0.000961348
0.000958068
0.000954562
0.000950777
0.000944868
0.000938042
0.000930453
0.00092192
0.000912437
0.000901643
0.000889689
0.000875718
0.000860501
0.000841816
0.000822522
0.000796605
0.000773228
0.00103385
0.00103368
0.00103336
0.0010329
0.00103228
0.00103153
0.00103065
0.00102964
0.0010285
0.00102725
0.00102587
0.00102438
0.00102276
0.00102103
0.00101919
0.00101722
0.00101512
0.0010129
0.00101054
0.00100805
0.0010054
0.0010026
0.00099963
0.000996471
0.000993106
0.000989503
0.000985392
0.000978891
0.000971679
0.000963695
0.000954731
0.000944766
0.00093342
0.000920855
0.00090617
0.00089019
0.000870593
0.00085039
0.000823378
0.000799018
0.0010702
0.00107004
0.00106972
0.00106926
0.00106865
0.00106789
0.00106701
0.00106599
0.00106484
0.00106357
0.00106218
0.00106066
0.00105903
0.00105727
0.00105539
0.00105339
0.00105126
0.00104899
0.00104659
0.00104404
0.00104134
0.00103848
0.00103544
0.00103221
0.00102876
0.00102506
0.00102016
0.00101338
0.0010058
0.000997398
0.000987977
0.00097751
0.000965589
0.000952391
0.000936968
0.0009202
0.000899667
0.000878533
0.000850416
0.00082506
0.00110711
0.00110696
0.00110665
0.00110619
0.00110558
0.00110482
0.00110393
0.00110291
0.00110175
0.00110047
0.00109906
0.00109753
0.00109587
0.00109409
0.00109218
0.00109015
0.00108798
0.00108568
0.00108323
0.00108063
0.00107788
0.00107496
0.00107186
0.00106855
0.00106502
0.00106122
0.00105539
0.0010483
0.00104036
0.00103154
0.00102164
0.00101065
0.000998127
0.000984271
0.000968086
0.000950505
0.000929015
0.000906928
0.000877702
0.000851337
0.00114457
0.00114443
0.00114413
0.00114368
0.00114307
0.00114232
0.00114142
0.00114039
0.00113923
0.00113794
0.00113652
0.00113497
0.00113329
0.00113149
0.00112955
0.00112749
0.00112528
0.00112294
0.00112046
0.00111781
0.00111501
0.00111203
0.00110887
0.00110549
0.00110188
0.00109785
0.00109112
0.00108366
0.00107533
0.00106608
0.00105569
0.00104415
0.00103101
0.00101647
0.000999496
0.000981078
0.000958611
0.000935552
0.000905214
0.000877831
0.00118259
0.00118246
0.00118216
0.00118171
0.00118111
0.00118036
0.00117947
0.00117843
0.00117727
0.00117596
0.00117453
0.00117297
0.00117127
0.00116945
0.00116749
0.00116539
0.00116316
0.00116078
0.00115826
0.00115557
0.00115272
0.00114969
0.00114647
0.00114302
0.00113932
0.00113436
0.00112728
0.00111943
0.00111069
0.00110099
0.00109009
0.00107799
0.0010642
0.00104895
0.00103117
0.00101189
0.00098843
0.00096438
0.000932932
0.000904523
0.00122113
0.00122101
0.00122073
0.00122029
0.00121969
0.00121894
0.00121805
0.00121702
0.00121584
0.00121453
0.00121309
0.00121151
0.0012098
0.00120796
0.00120598
0.00120386
0.0012016
0.00119919
0.00119663
0.0011939
0.00119101
0.00118792
0.00118464
0.00118113
0.00117733
0.00117121
0.00116382
0.00115558
0.00114642
0.00113625
0.00112483
0.00111213
0.00109768
0.0010817
0.00106308
0.00104292
0.00101844
0.000993387
0.000960833
0.000931395
0.0012602
0.00126009
0.00125982
0.00125939
0.0012588
0.00125805
0.00125716
0.00125613
0.00125495
0.00125363
0.00125218
0.0012506
0.00124887
0.00124701
0.00124501
0.00124287
0.00124058
0.00123815
0.00123555
0.00123279
0.00122985
0.00122672
0.00122338
0.00121979
0.00121542
0.00120847
0.00120071
0.00119208
0.00118248
0.00117183
0.00115985
0.00114655
0.00113141
0.00111467
0.0010952
0.00107413
0.00104863
0.00102255
0.000988898
0.000958428
0.00129977
0.00129968
0.00129942
0.00129899
0.00129841
0.00129767
0.00129678
0.00129575
0.00129457
0.00129325
0.0012918
0.0012902
0.00128846
0.00128659
0.00128457
0.00128241
0.0012801
0.00127764
0.00127501
0.00127221
0.00126923
0.00126606
0.00126266
0.00125899
0.00125342
0.00124609
0.00123793
0.0012289
0.00121885
0.00120768
0.00119514
0.0011812
0.00116535
0.00114784
0.00112749
0.00110549
0.00107895
0.00105184
0.0010171
0.000985604
0.00133983
0.00133975
0.0013395
0.00133909
0.00133851
0.00133778
0.0013369
0.00133587
0.00133469
0.00133337
0.00133191
0.00133031
0.00132856
0.00132668
0.00132465
0.00132247
0.00132014
0.00131765
0.001315
0.00131217
0.00130915
0.00130592
0.00130246
0.00129846
0.00129169
0.00128401
0.00127546
0.001266
0.00125547
0.00124378
0.00123065
0.00121606
0.00119948
0.00118117
0.00115992
0.00113698
0.00110939
0.00108124
0.00104543
0.0010129
0.00138035
0.00138029
0.00138006
0.00137966
0.00137909
0.00137837
0.00137749
0.00137647
0.00137529
0.00137397
0.00137251
0.0013709
0.00136915
0.00136726
0.00136522
0.00136302
0.00136067
0.00135816
0.00135548
0.00135262
0.00134957
0.0013463
0.00134277
0.00133749
0.00133025
0.00132219
0.00131325
0.00130335
0.00129233
0.00128009
0.00126635
0.00125109
0.00123375
0.00121462
0.00119246
0.00116855
0.00113992
0.00111071
0.00107385
0.00104031
0.00142133
0.00142128
0.00142106
0.00142067
0.00142012
0.00141941
0.00141854
0.00141752
0.00141635
0.00141503
0.00141357
0.00141196
0.00141021
0.00140831
0.00140626
0.00140405
0.00140169
0.00139916
0.00139646
0.00139357
0.00139048
0.00138716
0.00138327
0.00137666
0.00136905
0.00136061
0.00135126
0.0013409
0.00132937
0.00131657
0.0013022
0.00128625
0.00126813
0.00124817
0.00122508
0.00120019
0.0011705
0.00114024
0.00110235
0.0010678
0.00146272
0.0014627
0.00146249
0.00146212
0.00146158
0.00146088
0.00146002
0.00145901
0.00145784
0.00145653
0.00145507
0.00145347
0.00145171
0.0014498
0.00144775
0.00144553
0.00144316
0.00144061
0.00143789
0.00143498
0.00143185
0.00142847
0.00142317
0.00141603
0.00140805
0.00139923
0.00138945
0.00137862
0.00136657
0.00135319
0.00133817
0.0013215
0.00130259
0.00128176
0.00125773
0.00123185
0.00120111
0.00116979
0.0011309
0.00109535
0.00150452
0.00150451
0.00150432
0.00150397
0.00150344
0.00150275
0.00150191