/*--------------------------------*- C++ -*----------------------------------*\
| =========                 |                                                 |
| \\      /  F ield         | OpenFOAM: The Open Source CFD Toolbox           |
|  \\    /   O peration     | Version:  2006                                  |
|   \\  /    A nd           | Website:  www.openfoam.com                      |
|    \\/     M anipulation  |                                                 |
\*---------------------------------------------------------------------------*/
FoamFile
{
    version     2.0;
    format      ascii;
    class       volScalarField;
    location    "6000";
    object      omega;
}
// * * * * * * * * * * * * * * * * * * * * * * * * * * * * * * * * * * * * * //

dimensions      [0 0 -1 0 0 0 0];


internalField   nonuniform List<scalar> 
72100
(
3.51397e+06
3.51397e+06
3.51397e+06
3.51397e+06
3.51397e+06
3.51397e+06
3.51397e+06
3.51397e+06
3.51397e+06
3.51397e+06
3.51397e+06
3.51397e+06
3.51397e+06
3.51397e+06
3.51397e+06
3.51397e+06
3.51397e+06
3.51397e+06
3.51397e+06
3.51397e+06
3.51397e+06
3.51397e+06
3.51397e+06
3.51397e+06
3.51397e+06
3.51397e+06
3.51396e+06
3.51396e+06
3.51396e+06
3.51396e+06
3.51396e+06
3.51396e+06
3.51396e+06
3.51396e+06
3.51396e+06
3.51396e+06
3.51396e+06
3.51396e+06
3.51395e+06
3.51395e+06
599809
598899
598887
598882
598873
598863
598852
598839
598825
598810
598794
598777
598759
598740
598721
598700
598679
598656
598632
598607
598581
598554
598526
598496
598465
598432
598398
598363
598325
598286
598245
598202
598159
598111
598067
598012
597974
597907
597891
597797
204330
203744
203720
203705
203686
203662
203635
203604
203571
203535
203497
203456
203413
203367
203319
203268
203215
203159
203100
203038
202972
202904
202832
202756
202676
202592
202503
202410
202311
202206
202096
201979
201855
201724
201587
201438
201289
201119
200961
200782
101364
100998
100964
100943
100917
100884
100845
100802
100754
100702
100647
100587
100523
100456
100385
100309
100229
100145
100057
99963
99864.3
99760.2
99650.4
99534.5
99412
99282.4
99145.4
99000
98845.5
98680.9
98505.8
98319
98120.2
97906.6
97679.3
97432.2
97171
96883.2
96578.4
96264.3
63297.4
63076.9
63042.1
63020.7
62995.3
62963.2
62924.8
62880.8
62831.6
62777.5
62718.8
62655.5
62587.8
62515.5
62438.6
62357
62270.5
62179
62082.2
61979.8
61871.6
61757.2
61636.3
61508.2
61372.6
61228.8
61076.3
60914
60741
60556.2
60358.9
60147.2
59920.9
59675.8
59413.3
59124.2
58816.8
58469.4
58101.7
57692.7
45165.1
45036.6
45007.6
44991.1
44972.3
44947.8
44917.6
44881.9
44841.1
44795.4
44745.2
44690.6
44631.5
44568.1
44500.3
44428.1
44351.3
44269.8
44183.4
44091.8
43995
43892.4
43783.8
43668.7
43546.8
43417.4
43280
43133.9
42978.4
42812.2
42634.7
42443.9
42240
42018
41781.1
41517.1
41239.2
40915.5
40583.5
40181.2
34649
34574.1
34554.1
34544
34533
34517.5
34497.3
34472.4
34442.9
34408.9
34370.7
34328.5
34282.4
34232.4
34178.5
34120.8
34059.1
33993.5
33923.8
33849.9
33771.5
33688.5
33600.6
33507.6
33409
33304.6
33193.8
33076.7
32952.8
32820.9
32680.6
32530
32370
32195.9
32012.2
31806.7
31595
31343
31097
30777.2
27743.9
27701.5
27690.1
27686.2
27682.1
27674.7
27663.5
27648.2
27628.8
27605.4
27578.3
27547.6
27513.3
27475.7
27434.6
27390.4
27342.8
27291.9
27237.7
27180.1
27119
27054.2
26985.7
26913.2
26836.5
26755.5
26669.9
26580.5
26487.1
26388.4
26284.2
26173
26056.1
25929.9
25799.4
25654.3
25509.9
25336
25179
24962.4
22858.3
22835.5
22830.7
22831.9
22833.3
22832.6
22828.7
22821.4
22810.5
22796.2
22778.6
22757.7
22733.8
22706.8
22677
22644.5
22609.2
22571.1
22530.4
22487
22440.9
22392
22340.3
22285.6
22227.9
22167.2
22103.2
22036.8
21968
21896.1
21820.9
21741.5
21659.3
21571.9
21484.8
21389.6
21300.3
21192.4
21108.3
20984
19225
19213.4
19213.2
19217.9
19223.4
19227.6
19229.4
19228.4
19224.5
19217.8
19208.1
19195.7
19180.7
19163
19143
19120.6
19096
19069.2
19040.3
19009.3
18976.2
18941
18903.8
18864.6
18823.3
18779.9
18734.6
18687.4
18638.7
18588.4
18536.6
18482.7
18428.2
18371.3
18317.4
18260.1
18212.4
18154.8
18126
18073.8
16432.4
16427.3
16429.9
16436.8
16444.9
16452.4
16458.3
16462
16463.5
16462.6
16459.3
16453.7
16445.8
16435.8
16423.8
16409.8
16394.1
16376.6
16357.4
16336.6
16314.3
16290.5
16265.2
16238.6
16210.7
16181.6
16151.5
16120.2
16088.3
16055.8
16023.2
15990.1
15958
15925.7
15897.5
15869.3
15853.1
15833.6
15845.9
15846.2
14235.4
14234
14238.2
14246.2
14255.6
14265.1
14273.5
14280.5
14285.8
14289.1
14290.6
14290.2
14287.9
14283.9
14278.2
14271
14262.3
14252.2
14240.9
14228.3
14214.6
14199.9
14184.2
14167.7
14150.5
14132.7
14114.5
14096
14077.5
14059.3
14041.8
14025.2
14010.5
13997.5
13989.6
13984.4
13992
14001.8
14043.9
14083.9
12475.7
12476.2
12481.2
12489.4
12499.4
12509.7
12519.6
12528.5
12536.2
12542.5
12547.3
12550.6
12552.5
12553
12552.2
12550.1
12546.9
12542.7
12537.4
12531.3
12524.4
12516.8
12508.7
12500.1
12491.2
12482.2
12473.4
12464.8
12456.9
12449.8
12444.1
12440.1
12438.9
12440.6
12448.1
12460.3
12485.8
12517.8
12580.9
12651.9
11045.2
11046.9
11052
11060
11069.7
11080.1
11090.5
11100.4
11109.4
11117.5
11124.5
11130.4
11135.2
11138.9
11141.7
11143.6
11144.5
11144.7
11144.1
11142.9
11141.2
11139.1
11136.7
11134.2
11131.8
11129.6
11128
11127.1
11127.2
11128.6
11131.9
11137.5
11146.5
11159.2
11178.2
11203.5
11242
11290.2
11367.9
11461.8
9867.08
9869.36
9874.34
9881.81
9890.93
9900.92
9911.17
9921.26
9930.9
9939.91
9948.18
9955.66
9962.45
9968.49
9973.8
9978.41
9982.38
9985.78
9988.68
9991.19
9993.4
9995.43
9997.41
9999.54
10002
10005
10008.7
10013.5
10019.7
10027.6
10037.7
10050.5
10067
10087.8
10115.4
10150.2
10198
10257.8
10345.4
10455.1
8883.11
8885.67
8890.47
8897.42
8905.94
8915.45
8925.42
8935.49
8945.38
8954.93
8964.02
8972.58
8980.64
8988.17
8995.19
9001.73
9007.83
9013.55
9018.98
9024.19
9029.28
9034.37
9039.58
9045.15
9051.22
9057.99
9065.72
9074.71
9085.34
9098
9113.12
9131.19
9153.22
9180.05
9213.73
9255.28
9309.59
9377.34
9471.34
9591.59
8050.41
8053.04
8057.65
8064.16
8072.18
8081.21
8090.87
8100.81
8110.79
8120.65
8130.27
8139.57
8148.5
8157.08
8165.33
8173.27
8180.95
8188.41
8195.72
8202.97
8210.25
8217.66
8225.32
8233.43
8242.15
8251.67
8262.27
8274.27
8288.07
8304.12
8322.85
8344.74
8370.76
8401.82
8439.81
8486.05
8544.76
8617.73
8715.54
8842.08
7338.21
7340.77
7345.13
7351.2
7358.67
7367.2
7376.44
7386.1
7395.98
7405.91
7415.78
7425.51
7435.04
7444.37
7453.52
7462.51
7471.37
7480.14
7488.9
7497.7
7506.65
7515.84
7525.4
7535.45
7546.18
7557.81
7570.59
7584.8
7600.82
7619.21
7640.45
7665.03
7693.84
7727.84
7768.76
7818.11
7879.59
7955.76
8055.47
8185.19
6723.3
6725.73
6729.8
6735.42
6742.36
6750.36
6759.12
6768.41
6778.05
6787.88
6797.79
6807.71
6817.57
6827.37
6837.12
6846.82
6856.51
6866.22
6876.02
6885.97
6896.16
6906.68
6917.66
6929.2
6941.51
6954.77
6969.23
6985.15
7002.86
7022.84
7045.79
7072.2
7102.89
7138.83
7181.62
7232.9
7295.95
7373.79
7474.01
7604.68
6187.93
6190.17
6193.94
6199.13
6205.56
6213.02
6221.28
6230.14
6239.43
6249.03
6258.83
6268.76
6278.76
6288.8
6298.9
6309.06
6319.3
6329.66
6340.19
6350.96
6362.04
6373.53
6385.54
6398.2
6411.65
6426.12
6441.82
6459.02
6478.02
6499.2
6523.29
6550.88
6582.76
6619.9
6663.78
6716.08
6779.77
6858.14
6957.83
7087.81
5718.27
5720.33
5723.79
5728.57
5734.51
5741.44
5749.19
5757.58
5766.48
5775.76
5785.34
5795.14
5805.12
5815.23
5825.49
5835.89
5846.47
5857.24
5868.26
5879.58
5891.28
5903.45
5916.19
5929.63
5943.91
5959.23
5975.82
5993.92
6013.83
6035.9
6060.75
6089.07
6121.64
6159.41
6203.76
6256.4
6320.05
6398.1
6496.47
6624.56
5303.46
5305.33
5308.51
5312.9
5318.38
5324.81
5332.04
5339.96
5348.42
5357.33
5366.6
5376.18
5386.01
5396.07
5406.34
5416.83
5427.55
5438.55
5449.85
5461.52
5473.61
5486.23
5499.46
5513.42
5528.26
5544.16
5561.34
5580.04
5600.55
5623.19
5648.54
5677.27
5710.14
5748.11
5792.49
5844.97
5908.04
5985.16
6081.64
6207
4934.83
4936.54
4939.45
4943.48
4948.52
4954.48
4961.22
4968.65
4976.66
4985.16
4994.08
5003.37
5012.97
5022.86
5033.02
5043.47
5054.22
5065.28
5076.71
5088.55
5100.86
5113.73
5127.25
5141.53
5156.71
5172.97
5190.5
5209.56
5230.41
5253.37
5278.98
5307.85
5340.75
5378.61
5422.68
5474.61
5536.73
5612.46
5706.64
5828.69
4605.43
4606.99
4609.65
4613.34
4617.99
4623.5
4629.77
4636.73
4644.28
4652.35
4660.89
4669.83
4679.13
4688.78
4698.76
4709.07
4719.72
4730.74
4742.17
4754.04
4766.42
4779.39
4793.04
4807.47
4822.82
4839.25
4856.95
4876.16
4897.14
4920.21
4945.88
4974.7
5007.4
5044.91
5088.41
5139.52
5200.41
5274.43
5366.03
5484.37
4309.59
4311
4313.44
4316.83
4321.11
4326.2
4332.03
4338.53
4345.63
4353.27
4361.4
4369.96
4378.93
4388.28
4398
4408.1
4418.57
4429.46
4440.78
4452.58
4464.92
4477.87
4491.51
4505.96
4521.33
4537.78
4555.49
4574.7
4595.65
4618.65
4644.2
4672.79
4705.13
4742.11
4784.85
4834.93
4894.39
4966.47
5055.3
5169.7
4042.65
4043.94
4046.17
4049.29
4053.23
4057.93
4063.35
4069.42
4076.08
4083.29
4090.99
4099.16
4107.77
4116.78
4126.2
4136.03
4146.26
4156.93
4168.07
4179.71
4191.91
4204.74
4218.28
4232.63
4247.91
4264.26
4281.86
4300.93
4321.72
4344.52
4369.8
4398.03
4429.86
4466.17
4508.01
4556.91
4614.79
4684.78
4770.73
4881.05
3800.77
3801.95
3804
3806.86
3810.49
3814.85
3819.88
3825.53
3831.78
3838.56
3845.85
3853.62
3861.84
3870.5
3879.58
3889.09
3899.04
3909.44
3920.33
3931.75
3943.74
3956.37
3969.72
3983.89
3998.98
4015.13
4032.52
4051.35
4071.87
4094.36
4119.25
4146.99
4178.22
4213.74
4254.58
4302.2
4358.4
4426.2
4509.19
4615.36
3580.74
3581.82
3583.71
3586.34
3589.7
3593.73
3598.39
3603.67
3609.51
3615.89
3622.77
3630.14
3637.97
3646.25
3654.97
3664.14
3673.76
3683.86
3694.46
3705.6
3717.32
3729.69
3742.79
3756.7
3771.52
3787.41
3804.51
3823.01
3843.17
3865.26
3889.67
3916.84
3947.36
3982.02
4021.77
4068.03
4122.49
4188.04
4268.05
4370.07
3379.87
3380.87
3382.6
3385.03
3388.13
3391.86
3396.2
3401.11
3406.58
3412.57
3419.05
3426.03
3433.47
3441.37
3449.72
3458.52
3467.8
3477.56
3487.83
3498.65
3510.06
3522.13
3534.91
3548.51
3563.02
3578.57
3595.31
3613.43
3633.15
3654.78
3678.63
3705.15
3734.91
3768.63
3807.24
3852.08
3904.77
3968.04
4045.07
4142.98
3195.88
3196.8
3198.4
3200.65
3203.52
3206.98
3211.01
3215.59
3220.7
3226.31
3232.42
3239.01
3246.07
3253.58
3261.56
3269.99
3278.9
3288.3
3298.22
3308.7
3319.77
3331.49
3343.93
3357.17
3371.31
3386.48
3402.81
3420.49
3439.73
3460.83
3484.07
3509.89
3538.82
3571.56
3609
3652.39
3703.28
3764.27
3838.35
3932.21
3026.84
3027.69
3029.17
3031.25
3033.91
3037.12
3040.87
3045.14
3049.92
3055.18
3060.93
3067.15
3073.83
3080.97
3088.56
3096.62
3105.16
3114.19
3123.75
3133.85
3144.55
3155.9
3167.97
3180.82
3194.56
3209.31
3225.2
3242.39
3261.11
3281.64
3304.23
3329.31
3357.37
3389.1
3425.33
3467.25
3516.35
3575.06
3646.23
3736.12
2871.08
2871.87
2873.24
2875.17
2877.64
2880.63
2884.12
2888.1
2892.57
2897.51
2902.91
2908.77
2915.09
2921.86
2929.08
2936.77
2944.93
2953.59
2962.76
2972.49
2982.81
2993.77
3005.43
3017.88
3031.2
3045.49
3060.91
3077.59
3095.75
3115.67
3137.58
3161.89
3189.07
3219.76
3254.76
3295.22
3342.52
3398.99
3467.3
3553.33
2727.19
2727.92
2729.2
2730.99
2733.29
2736.07
2739.32
2743.04
2747.22
2751.85
2756.93
2762.45
2768.42
2774.83
2781.69
2789.01
2796.8
2805.08
2813.87
2823.21
2833.13
2843.69
2854.95
2866.97
2879.84
2893.67
2908.59
2924.74
2942.32
2961.61
2982.82
3006.33
3032.61
3062.26
3096.03
3135.02
3180.55
3234.81
3300.33
3382.6
2593.93
2594.61
2595.79
2597.47
2599.6
2602.2
2605.23
2608.71
2612.62
2616.97
2621.74
2626.94
2632.58
2638.64
2645.15
2652.11
2659.53
2667.43
2675.85
2684.8
2694.32
2704.48
2715.31
2726.89
2739.31
2752.66
2767.07
2782.68
2799.67
2818.31
2838.8
2861.51
2886.88
2915.47
2948.03
2985.56
3029.34
3081.43
3144.23
3222.85
2470.23
2470.86
2471.97
2473.52
2475.52
2477.94
2480.78
2484.03
2487.7
2491.77
2496.26
2501.16
2506.48
2512.21
2518.38
2524.99
2532.05
2539.59
2547.62
2556.19
2565.32
2575.06
2585.47
2596.61
2608.57
2621.43
2635.32
2650.38
2666.77
2684.75
2704.52
2726.43
2750.88
2778.43
2809.77
2845.87
2887.93
2937.9
2998.05
3073.15
2355.15
2355.74
2356.78
2358.23
2360.1
2362.36
2365.02
2368.06
2371.5
2375.33
2379.55
2384.16
2389.18
2394.6
2400.44
2406.71
2413.43
2420.6
2428.27
2436.45
2445.19
2454.52
2464.51
2475.21
2486.7
2499.08
2512.45
2526.95
2542.74
2560.06
2579.11
2600.21
2623.76
2650.28
2680.42
2715.11
2755.48
2803.38
2860.96
2932.65
2247.89
2248.44
2249.41
2250.77
2252.51
2254.63
2257.12
2259.98
2263.2
2266.8
2270.77
2275.12
2279.85
2284.97
2290.5
2296.45
2302.83
2309.66
2316.96
2324.77
2333.12
2342.05
2351.62
2361.88
2372.92
2384.81
2397.66
2411.6
2426.79
2443.46
2461.79
2482.09
2504.74
2530.24
2559.2
2592.51
2631.24
2677.13
2732.21
2800.62
2147.72
2148.23
2149.14
2150.41
2152.05
2154.03
2156.37
2159.05
2162.08
2165.46
2169.2
2173.29
2177.76
2182.6
2187.84
2193.47
2199.53
2206.02
2212.97
2220.42
2228.39
2236.93
2246.09
2255.92
2266.5
2277.9
2290.24
2303.63
2318.23
2334.25
2351.87
2371.38
2393.15
2417.65
2445.46
2477.42
2514.54
2558.48
2611.15
2676.4
2054
2054.48
2055.33
2056.52
2058.06
2059.92
2062.12
2064.64
2067.49
2070.67
2074.18
2078.05
2082.26
2086.84
2091.79
2097.13
2102.88
2109.05
2115.67
2122.76
2130.36
2138.52
2147.27
2156.68
2166.81
2177.74
2189.57
2202.42
2216.43
2231.82
2248.74
2267.48
2288.38
2311.9
2338.58
2369.22
2404.8
2446.84
2497.18
2559.39
1966.17
1966.62
1967.42
1968.54
1969.98
1971.74
1973.8
1976.17
1978.85
1981.85
1985.16
1988.81
1992.79
1997.11
2001.8
2006.86
2012.31
2018.17
2024.46
2031.22
2038.47
2046.25
2054.61
2063.6
2073.29
2083.76
2095.1
2107.41
2120.86
2135.62
2151.86
2169.84
2189.89
2212.45
2238.03
2267.4
2301.47
2341.68
2389.77
2449.05
1883.73
1884.15
1884.9
1885.96
1887.32
1888.97
1890.91
1893.14
1895.67
1898.49
1901.62
1905.06
1908.82
1912.91
1917.35
1922.14
1927.31
1932.88
1938.86
1945.29
1952.19
1959.61
1967.59
1976.18
1985.45
1995.46
2006.31
2018.11
2031.02
2045.16
2060.73
2077.97
2097.2
2118.82
2143.34
2171.47
2204.07
2242.52
2288.44
2344.92
1806.24
1806.64
1807.34
1808.34
1809.62
1811.17
1813
1815.11
1817.49
1820.15
1823.11
1826.35
1829.91
1833.78
1837.98
1842.52
1847.42
1852.71
1858.39
1864.51
1871.08
1878.16
1885.77
1893.97
1902.82
1912.4
1922.78
1934.06
1946.44
1959.99
1974.9
1991.43
2009.85
2030.57
2054.06
2080.98
2112.18
2148.93
2192.76
2246.55
1733.3
1733.67
1734.33
1735.27
1736.48
1737.94
1739.67
1741.66
1743.91
1746.42
1749.21
1752.28
1755.64
1759.31
1763.28
1767.59
1772.24
1777.26
1782.66
1788.47
1794.73
1801.47
1808.73
1816.56
1825.01
1834.16
1844.08
1854.87
1866.72
1879.7
1893.99
1909.81
1927.46
1947.31
1969.79
1995.56
2025.4
2060.5
2102.33
2153.54
1664.54
1664.89
1665.52
1666.4
1667.54
1668.92
1670.56
1672.43
1674.56
1676.94
1679.57
1682.48
1685.66
1689.13
1692.89
1696.98
1701.39
1706.15
1711.28
1716.82
1722.77
1729.19
1736.11
1743.58
1751.64
1760.38
1769.86
1780.18
1791.52
1803.94
1817.62
1832.77
1849.67
1868.67
1890.19
1914.84
1943.37
1976.89
2016.8
2065.53
1599.66
1599.99
1600.58
1601.41
1602.48
1603.79
1605.33
1607.11
1609.12
1611.37
1613.86
1616.61
1619.62
1622.91
1626.48
1630.35
1634.54
1639.06
1643.94
1649.2
1654.87
1660.98
1667.57
1674.69
1682.39
1690.73
1699.78
1709.65
1720.49
1732.38
1745.47
1759.98
1776.15
1794.33
1814.92
1838.5
1865.76
1897.77
1935.82
1982.2
1538.35
1538.66
1539.21
1540
1541.02
1542.25
1543.71
1545.39
1547.29
1549.42
1551.79
1554.39
1557.24
1560.36
1563.74
1567.42
1571.39
1575.69
1580.32
1585.33
1590.72
1596.54
1602.82
1609.61
1616.95
1624.91
1633.55
1642.99
1653.36
1664.72
1677.25
1691.13
1706.61
1724
1743.7
1766.23
1792.28
1822.84
1859.12
1903.23
1480.35
1480.64
1481.17
1481.91
1482.87
1484.04
1485.42
1487.01
1488.82
1490.83
1493.07
1495.54
1498.25
1501.2
1504.41
1507.9
1511.68
1515.76
1520.17
1524.92
1530.06
1535.6
1541.58
1548.05
1555.05
1562.64
1570.9
1579.93
1589.83
1600.7
1612.68
1625.95
1640.76
1657.4
1676.23
1697.78
1722.66
1751.82
1786.4
1828.36
1425.44
1425.71
1426.2
1426.91
1427.82
1428.92
1430.23
1431.74
1433.45
1435.36
1437.49
1439.83
1442.39
1445.2
1448.25
1451.56
1455.15
1459.02
1463.22
1467.74
1472.63
1477.91
1483.61
1489.77
1496.45
1503.69
1511.57
1520.22
1529.67
1540.06
1551.51
1564.21
1578.37
1594.28
1612.29
1632.88
1656.64
1684.47
1717.42
1757.32
1373.38
1373.64
1374.11
1374.77
1375.63
1376.68
1377.92
1379.35
1380.97
1382.79
1384.8
1387.02
1389.46
1392.12
1395.02
1398.17
1401.58
1405.26
1409.25
1413.56
1418.21
1423.23
1428.67
1434.54
1440.91
1447.81
1455.34
1463.61
1472.65
1482.58
1493.52
1505.67
1519.21
1534.42
1551.64
1571.31
1594
1620.54
1651.94
1689.88
1323.99
1324.23
1324.67
1325.3
1326.12
1327.11
1328.29
1329.65
1331.18
1332.91
1334.82
1336.93
1339.25
1341.78
1344.53
1347.52
1350.76
1354.27
1358.07
1362.16
1366.59
1371.38
1376.56
1382.16
1388.22
1394.81
1402.01
1409.91
1418.55
1428.04
1438.51
1450.11
1463.06
1477.61
1494.06
1512.85
1534.52
1559.84
1589.75
1625.81
1277.08
1277.31
1277.73
1278.33
1279.1
1280.04
1281.16
1282.45
1283.91
1285.54
1287.36
1289.37
1291.57
1293.98
1296.59
1299.44
1302.52
1305.86
1309.47
1313.37
1317.59
1322.15
1327.09
1332.42
1338.21
1344.5
1351.39
1358.93
1367.19
1376.26
1386.26
1397.36
1409.74
1423.64
1439.37
1457.32
1478.01
1502.15
1530.65
1564.92
1232.5
1232.72
1233.11
1233.67
1234.41
1235.3
1236.36
1237.59
1238.97
1240.53
1242.26
1244.17
1246.26
1248.55
1251.04
1253.75
1256.68
1259.86
1263.3
1267.02
1271.04
1275.38
1280.08
1285.17
1290.69
1296.7
1303.29
1310.5
1318.39
1327.06
1336.62
1347.23
1359.07
1372.36
1387.39
1404.53
1424.28
1447.3
1474.44
1507.02
1190.09
1190.29
1190.67
1191.2
1191.89
1192.75
1193.75
1194.91
1196.23
1197.72
1199.36
1201.18
1203.17
1205.35
1207.72
1210.3
1213.09
1216.12
1219.39
1222.93
1226.76
1230.91
1235.39
1240.24
1245.51
1251.25
1257.56
1264.44
1271.98
1280.27
1289.42
1299.56
1310.88
1323.58
1337.94
1354.32
1373.17
1395.12
1420.97
1451.92
1149.72
1149.91
1150.26
1150.77
1151.42
1152.23
1153.19
1154.29
1155.55
1156.96
1158.52
1160.25
1162.15
1164.22
1166.48
1168.94
1171.6
1174.48
1177.61
1180.98
1184.63
1188.58
1192.85
1197.48
1202.51
1208.02
1214.04
1220.62
1227.83
1235.76
1244.5
1254.2
1265.02
1277.16
1290.89
1306.53
1324.53
1345.45
1370.06
1399.48
1111.25
1111.43
1111.76
1112.24
1112.87
1113.63
1114.54
1115.6
1116.79
1118.13
1119.62
1121.27
1123.08
1125.05
1127.2
1129.54
1132.08
1134.83
1137.81
1141.03
1144.51
1148.27
1152.35
1156.77
1161.58
1166.85
1172.61
1178.9
1185.79
1193.37
1201.73
1211.01
1221.35
1232.96
1246.08
1261.02
1278.19
1298.15
1321.58
1349.53
1074.58
1074.75
1075.06
1075.52
1076.11
1076.84
1077.7
1078.7
1079.84
1081.12
1082.54
1084.11
1085.83
1087.71
1089.76
1091.99
1094.41
1097.04
1099.87
1102.94
1106.27
1109.86
1113.75
1117.97
1122.58
1127.63
1133.13
1139.15
1145.74
1152.98
1160.98
1169.85
1179.75
1190.84
1203.38
1217.65
1234.04
1253.07
1275.38
1301.93
1039.59
1039.75
1040.05
1040.48
1041.04
1041.73
1042.56
1043.51
1044.59
1045.81
1047.16
1048.66
1050.3
1052.09
1054.05
1056.18
1058.49
1060.99
1063.7
1066.63
1069.8
1073.23
1076.94
1080.98
1085.4
1090.23
1095.49
1101.25
1107.55
1114.48
1122.13
1130.62
1140.08
1150.69
1162.67
1176.3
1191.95
1210.09
1231.33
1256.56
1006.19
1006.34
1006.62
1007.03
1007.57
1008.22
1009.01
1009.91
1010.94
1012.1
1013.39
1014.82
1016.38
1018.1
1019.96
1021.99
1024.2
1026.59
1029.17
1031.97
1034.99
1038.27
1041.82
1045.69
1049.93
1054.55
1059.59
1065.09
1071.12
1077.75
1085.07
1093.19
1102.24
1112.39
1123.84
1136.86
1151.8
1169.09
1189.32
1213.29
974.289
974.428
974.694
975.082
975.59
976.216
976.96
977.822
978.805
979.909
981.139
982.499
983.993
985.627
987.41
989.348
991.451
993.731
996.199
998.87
1001.76
1004.89
1008.29
1012.01
1016.07
1020.49
1025.31
1030.58
1036.35
1042.69
1049.7
1057.47
1066.12
1075.83
1086.78
1099.22
1113.48
1129.97
1149.23
1172
943.797
943.928
944.18
944.548
945.03
945.625
946.333
947.154
948.09
949.143
950.316
951.613
953.039
954.599
956.301
958.151
960.16
962.337
964.695
967.246
970.009
973.003
976.265
979.838
983.726
987.957
992.57
997.611
1003.14
1009.21
1015.92
1023.35
1031.64
1040.92
1051.38
1063.27
1076.88
1092.61
1110.95
1132.59
914.639
914.763
915.001
915.349
915.807
916.372
917.046
917.828
918.72
919.724
920.842
922.08
923.441
924.931
926.556
928.324
930.243
932.323
934.576
937.015
939.657
942.528
945.665
949.092
952.815
956.866
961.282
966.109
971.4
977.217
983.637
990.754
998.682
1007.56
1017.57
1028.93
1041.93
1056.92
1074.38
1094.94
886.743
886.859
887.084
887.414
887.848
888.386
889.027
889.771
890.621
891.578
892.646
893.827
895.126
896.549
898.102
899.791
901.625
903.613
905.767
908.1
910.631
913.39
916.409
919.691
923.257
927.137
931.367
935.991
941.058
946.629
952.778
959.592
967.181
975.678
985.25
996.106
1008.51
1022.81
1039.44
1058.98
860.042
860.149
860.361
860.674
861.086
861.597
862.207
862.916
863.726
864.639
865.657
866.785
868.026
869.385
870.869
872.483
874.236
876.137
878.198
880.433
882.862
885.52
888.417
891.562
894.978
898.696
902.75
907.18
912.035
917.372
923.262
929.788
937.054
945.185
954.341
964.717
976.566
990.204
1006.04
1024.61
834.471
834.571
834.771
835.067
835.458
835.944
836.524
837.199
837.971
838.841
839.813
840.89
842.075
843.374
844.792
846.335
848.012
849.831
851.804
853.948
856.288
858.846
861.623
864.637
867.912
871.475
875.361
879.607
884.26
889.374
895.017
901.269
908.226
916.01
924.769
934.688
946.004
959.011
974.093
991.738
809.974
810.067
810.255
810.535
810.905
811.367
811.918
812.561
813.297
814.128
815.055
816.083
817.216
818.457
819.812
821.288
822.893
824.635
826.527
828.59
830.847
833.302
835.964
838.854
841.994
845.41
849.136
853.206
857.667
862.57
867.978
873.967
880.631
888.083
896.463
905.946
916.755
929.163
943.527
960.297
786.494
786.581
786.757
787.022
787.373
787.811
788.336
788.949
789.65
790.442
791.328
792.31
793.392
794.578
795.874
797.287
798.823
800.493
802.313
804.303
806.474
808.829
811.383
814.154
817.165
820.442
824.015
827.919
832.196
836.897
842.081
847.821
854.204
861.339
869.359
878.426
888.751
900.588
914.27
930.21
763.982
764.062
764.228
764.478
764.811
765.227
765.726
766.31
766.978
767.734
768.579
769.517
770.552
771.686
772.927
774.279
775.752
777.357
779.113
781.031
783.115
785.374
787.824
790.482
793.371
796.515
799.942
803.687
807.789
812.297
817.268
822.77
828.886
835.719
843.395
852.066
861.93
873.223
886.256
901.408
742.39
742.464
742.62
742.856
743.172
743.567
744.042
744.597
745.235
745.956
746.763
747.659
748.648
749.734
750.921
752.218
753.633
755.181
756.876
758.719
760.719
762.886
765.237
767.788
770.561
773.577
776.866
780.459
784.395
788.719
793.486
798.76
804.622
811.167
818.513
826.807
836.231
847.007
859.422
873.826
721.675
721.743
721.889
722.112
722.411
722.786
723.238
723.767
724.375
725.063
725.834
726.691
727.637
728.676
729.814
731.06
732.424
733.919
735.55
737.32
739.239
741.32
743.576
746.025
748.685
751.581
754.737
758.186
761.962
766.111
770.683
775.741
781.359
787.628
794.662
802.595
811.6
821.883
833.711
847.404
701.793
701.856
701.993
702.204
702.487
702.844
703.274
703.778
704.358
705.015
705.752
706.571
707.477
708.473
709.566
710.766
712.084
713.525
715.092
716.791
718.633
720.63
722.796
725.147
727.701
730.481
733.511
736.821
740.446
744.427
748.813
753.663
759.049
765.056
771.79
779.378
787.984
797.797
809.066
822.085
682.708
682.765
682.895
683.094
683.363
683.702
684.111
684.592
685.145
685.773
686.477
687.262
688.13
689.086
690.139
691.3
692.571
693.956
695.46
697.091
698.86
700.777
702.857
705.114
707.567
710.236
713.145
716.323
719.802
723.622
727.831
732.483
737.646
743.402
749.85
757.11
765.334
774.7
785.436
797.815
664.382
664.436
664.558
664.747
665.002
665.324
665.714
666.173
666.701
667.301
667.975
668.727
669.561
670.483
671.502
672.622
673.845
675.174
676.618
678.184
679.882
681.723
683.72
685.887
688.242
690.805
693.599
696.65
699.99
703.657
707.695
712.158
717.109
722.625
728.799
735.746
743.605
752.544
762.774
774.544
646.783
646.835
646.951
647.13
647.372
647.679
648.05
648.488
648.993
649.567
650.214
650.937
651.741
652.633
653.617
654.694
655.867
657.143
658.529
660.032
661.662
663.43
665.347
667.429
669.691
672.152
674.835
677.764
680.972
684.492
688.367
692.649
697.396
702.682
708.596
715.242
722.754
731.286
741.034
752.226
629.882
629.933
630.042
630.212
630.442
630.734
631.089
631.507
631.99
632.542
633.163
633.861
634.639
635.5
636.445
637.479
638.605
639.829
641.159
642.602
644.166
645.864
647.705
649.704
651.876
654.24
656.817
659.631
662.71
666.09
669.809
673.917
678.47
683.536
689.2
695.56
702.74
710.883
720.172
730.815
613.646
613.698
613.805
613.966
614.185
614.462
614.801
615.201
615.666
616.197
616.797
617.471
618.22
619.047
619.954
620.944
622.024
623.199
624.474
625.859
627.361
628.991
630.759
632.679
634.766
637.036
639.511
642.214
645.171
648.416
651.986
655.928
660.294
665.151
670.576
676.662
683.525
691.298
700.149
710.269
598.038
598.094
598.202
598.359
598.57
598.837
599.162
599.546
599.993
600.504
601.083
601.73
602.448
603.24
604.108
605.057
606.093
607.219
608.443
609.772
611.214
612.779
614.477
616.321
618.326
620.507
622.885
625.48
628.321
631.437
634.864
638.647
642.835
647.491
652.687
658.512
665.072
672.491
680.926
690.55
583.034
583.089
583.197
583.354
583.561
583.821
584.135
584.506
584.935
585.426
585.98
586.599
587.287
588.045
588.877
589.786
590.779
591.86
593.034
594.31
595.695
597.197
598.829
600.6
602.526
604.622
606.906
609.4
612.128
615.121
618.412
622.042
626.06
630.523
635.501
641.076
647.347
654.429
662.466
671.619
568.61
568.662
568.765
568.919
569.122
569.375
569.68
570.038
570.451
570.922
571.454
572.047
572.705
573.431
574.229
575.101
576.053
577.09
578.218
579.443
580.772
582.216
583.783
585.486
587.336
589.35
591.545
593.942
596.563
599.437
602.598
606.082
609.937
614.217
618.986
624.321
630.316
637.077
644.736
653.44
554.747
554.791
554.886
555.032
555.228
555.473
555.768
556.113
556.512
556.965
557.475
558.045
558.676
559.372
560.137
560.974
561.888
562.884
563.966
565.143
566.421
567.808
569.314
570.95
572.729
574.665
576.775
579.078
581.597
584.358
587.394
590.739
594.438
598.541
603.111
608.218
613.95
620.404
627.703
635.98
541.421
541.456
541.542
541.678
541.863
542.097
542.38
542.713
543.096
543.532
544.022
544.569
545.175
545.843
546.578
547.381
548.259
549.215
550.255
551.386
552.614
553.947
555.395
556.968
558.678
560.54
562.568
564.782
567.203
569.856
572.772
575.984
579.534
583.469
587.848
592.737
598.217
604.378
611.334
619.207
528.609
528.637
528.714
528.839
529.012
529.234
529.503
529.82
530.188
530.605
531.076
531.6
532.182
532.824
533.53
534.302
535.145
536.063
537.063
538.15
539.33
540.612
542.004
543.517
545.161
546.951
548.901
551.03
553.357
555.907
558.708
561.792
565.199
568.974
573.17
577.85
583.089
588.972
595.601
603.089
516.295
516.317
516.385
516.499
516.66
516.867
517.121
517.423
517.773
518.172
518.622
519.125
519.683
520.299
520.976
521.717
522.527
523.41
524.37
525.415
526.549
527.782
529.12
530.575
532.156
533.877
535.753
537.799
540.036
542.487
545.178
548.14
551.41
555.031
559.052
563.532
568.542
574.158
580.476
587.597
504.464
504.478
504.537
504.64
504.789
504.982
505.221
505.506
505.838
506.218
506.648
507.128
507.663
508.253
508.902
509.613
510.39
511.238
512.16
513.164
514.254
515.439
516.726
518.124
519.645
521.3
523.103
525.07
527.221
529.576
532.162
535.006
538.145
541.617
545.471
549.76
554.549
559.911
565.932
572.705
493.096
493.103
493.153
493.247
493.384
493.564
493.788
494.056
494.37
494.731
495.139
495.598
496.108
496.672
497.293
497.975
498.72
499.533
500.418
501.382
502.429
503.567
504.804
506.148
507.61
509.201
510.934
512.826
514.893
517.156
519.639
522.371
525.383
528.713
532.405
536.511
541.09
546.208
551.946
558.387
482.174
482.176
482.219
482.303
482.429
482.596
482.805
483.058
483.354
483.695
484.083
484.519
485.005
485.544
486.137
486.789
487.503
488.282
489.131
490.055
491.06
492.153
493.341
494.632
496.037
497.565
499.231
501.049
503.035
505.209
507.594
510.216
513.106
516.299
519.836
523.766
528.142
533.028
538.494
544.619
471.684
471.681
471.717
471.793
471.908
472.063
472.259
472.496
472.775
473.097
473.465
473.879
474.341
474.854
475.42
476.043
476.725
477.47
478.284
479.17
480.133
481.182
482.322
483.561
484.91
486.378
487.978
489.724
491.632
493.72
496.009
498.526
501.298
504.358
507.746
511.506
515.689
520.35
525.557
531.38
461.611
461.604
461.634
461.701
461.806
461.95
462.132
462.354
462.616
462.921
463.268
463.66
464.099
464.588
465.127
465.721
466.372
467.085
467.863
468.711
469.634
470.639
471.733
472.922
474.216
475.626
477.162
478.838
480.669
482.673
484.871
487.285
489.943
492.876
496.12
499.715
503.711
508.158
513.117
518.652
451.943
451.93
451.953
452.012
452.108
452.239
452.409
452.616
452.862
453.149
453.477
453.848
454.264
454.728
455.242
455.807
456.429
457.109
457.853
458.664
459.548
460.511
461.559
462.699
463.941
465.293
466.767
468.375
470.133
472.056
474.164
476.479
479.026
481.836
484.94
488.378
492.194
496.434
501.155
506.414
442.661
442.642
442.658
442.709
442.794
442.914
443.071
443.264
443.494
443.763
444.073
444.424
444.818
445.258
445.746
446.285
446.878
447.527
448.238
449.013
449.859
450.781
451.785
452.878
454.068
455.365
456.779
458.321
460.007
461.852
463.873
466.093
468.533
471.223
474.194
477.48
481.122
485.164
489.657
494.652
433.745
433.72
433.729
433.77
433.845
433.955
434.098
434.277
434.492
434.745
435.036
435.368
435.741
436.159
436.623
437.136
437.7
438.32
438.999
439.74
440.55
441.432
442.393
443.441
444.582
445.825
447.181
448.661
450.278
452.047
453.985
456.111
458.449
461.024
463.865
467.005
470.48
474.332
478.606
483.348
425.17
425.139
425.14
425.174
425.239
425.338
425.469
425.635
425.836
426.073
426.347
426.66
427.014
427.41
427.851
428.34
428.878
429.469
430.117
430.827
431.601
432.446
433.367
434.37
435.464
436.656
437.957
439.376
440.927
442.623
444.481
446.519
448.758
451.223
453.939
456.938
460.254
463.923
467.987
472.488
416.906
416.872
416.868
416.894
416.952
417.04
417.161
417.315
417.503
417.725
417.984
418.28
418.615
418.991
419.411
419.876
420.389
420.954
421.574
422.252
422.994
423.803
424.686
425.648
426.697
427.841
429.088
430.45
431.938
433.564
435.346
437.299
439.444
441.802
444.399
447.264
450.426
453.92
457.784
462.056
408.931
408.895
408.887
408.908
408.959
409.04
409.151
409.294
409.47