/*--------------------------------*- C++ -*----------------------------------*\
| =========                 |                                                 |
| \\      /  F ield         | OpenFOAM: The Open Source CFD Toolbox           |
|  \\    /   O peration     | Version:  2006                                  |
|   \\  /    A nd           | Website:  www.openfoam.com                      |
|    \\/     M anipulation  |                                                 |
\*---------------------------------------------------------------------------*/
FoamFile
{
    version     2.0;
    format      ascii;
    class       volScalarField;
    location    "6000";
    object      p;
}
// * * * * * * * * * * * * * * * * * * * * * * * * * * * * * * * * * * * * * //

dimensions      [0 2 -2 0 0 0 0];


internalField   nonuniform List<scalar> 
72100
(
4.66564
4.66579
4.69542
4.73012
4.77903
4.83998
4.9137
5.00009
5.09923
5.21118
5.33606
5.474
5.6252
5.78987
5.96831
6.16086
6.36791
6.58992
6.82742
7.08101
7.35135
7.63921
7.94543
8.27103
8.61697
8.98468
9.37519
9.79059
10.2315
10.7019
11.2005
11.7354
12.2998
12.9139
13.5512
14.2687
14.978
15.8484
16.5944
17.7432
4.66568
4.66581
4.69543
4.73014
4.77905
4.84
4.91373
5.00012
5.09926
5.21121
5.33609
5.47404
5.62524
5.78992
5.96836
6.16091
6.36796
6.58998
6.82748
7.08107
7.35142
7.63929
7.94552
8.27112
8.61707
8.98478
9.3753
9.79071
10.2317
10.702
11.2007
11.7356
12.3
12.9141
13.5515
14.269
14.9783
15.8488
16.5949
17.7437
4.6657
4.66582
4.69544
4.73015
4.77908
4.84003
4.91376
5.00015
5.09929
5.21125
5.33613
5.47408
5.62528
5.78997
5.96841
6.16097
6.36802
6.59005
6.82755
7.08115
7.3515
7.63938
7.94561
8.27122
8.61718
8.9849
9.37543
9.79085
10.2318
10.7022
11.2008
11.7358
12.3002
12.9143
13.5517
14.2693
14.9786
15.8492
16.5953
17.7443
4.66566
4.66584
4.69546
4.73017
4.7791
4.84005
4.91379
5.00019
5.09933
5.21129
5.33618
5.47413
5.62533
5.79002
5.96847
6.16103
6.36809
6.59011
6.82763
7.08123
7.35158
7.63946
7.9457
8.27132
8.61729
8.98501
9.37556
9.79098
10.232
10.7023
11.201
11.736
12.3004
12.9146
13.552
14.2696
14.979
15.8496
16.5957
17.7449
4.66559
4.66586
4.69547
4.73019
4.77913
4.84009
4.91383
5.00023
5.09938
5.21134
5.33623
5.47419
5.6254
5.79008
5.96854
6.1611
6.36817
6.5902
6.82772
7.08133
7.35169
7.63958
7.94582
8.27145
8.61743
8.98516
9.37572
9.79116
10.2322
10.7025
11.2012
11.7362
12.3007
12.9149
13.5523
14.2699
14.9794
15.8501
16.5962
17.7455
4.66553
4.6659
4.69549
4.73022
4.77917
4.84013
4.91388
5.00029
5.09944
5.21141
5.33631
5.47427
5.62549
5.79018
5.96864
6.16121
6.36829
6.59032
6.82785
7.08147
7.35184
7.63974
7.946
8.27164
8.61762
8.98538
9.37595
9.7914
10.2324
10.7028
11.2016
11.7366
12.3011
12.9153
13.5528
14.2704
14.9799
15.8507
16.5969
17.7464
4.6655
4.66595
4.69552
4.73026
4.77922
4.8402
4.91395
5.00037
5.09953
5.21151
5.33641
5.47438
5.62561
5.79031
5.96878
6.16136
6.36844
6.59049
6.82803
7.08166
7.35204
7.63996
7.94623
8.27189
8.61789
8.98566
9.37626
9.79174
10.2328
10.7032
11.202
11.737
12.3016
12.9158
13.5534
14.2711
14.9806
15.8516
16.5978
17.7475
4.66548
4.66599
4.69555
4.7303
4.77928
4.84027
4.91403
5.00046
5.09964
5.21163
5.33654
5.47452
5.62576
5.79047
5.96895
6.16154
6.36864
6.5907
6.82825
7.0819
7.3523
7.64023
7.94652
8.2722
8.61823
8.98602
9.37664
9.79215
10.2332
10.7037
11.2025
11.7376
12.3022
12.9165
13.5541
14.2719
14.9815
15.8526
16.5988
17.7487
4.66542
4.66603
4.69557
4.73034
4.77934
4.84034
4.91413
5.00057
5.09976
5.21176
5.33668
5.47468
5.62592
5.79065
5.96915
6.16175
6.36886
6.59094
6.82851
7.08217
7.35259
7.64054
7.94686
8.27256
8.61861
8.98644
9.37709
9.79262
10.2337
10.7042
11.2031
11.7382
12.3029
12.9173
13.5549
14.2728
14.9825
15.8537
16.6
17.75
4.66528
4.66605
4.69559
4.73038
4.77939
4.84042
4.91422
5.00068
5.09988
5.2119
5.33684
5.47485
5.62611
5.79085
5.96936
6.16198
6.36911
6.5912
6.82879
7.08247
7.35291
7.64089
7.94722
8.27295
8.61903
8.98688
9.37756
9.79313
10.2343
10.7048
11.2037
11.7389
12.3036
12.9181
13.5558
14.2738
14.9835
15.8548
16.6011
17.7512
4.66508
4.66607
4.69559
4.7304
4.77944
4.84049
4.91431
5.00079
5.10001
5.21205
5.337
5.47503
5.6263
5.79106
5.96959
6.16223
6.36937
6.59148
6.82909
7.08279
7.35325
7.64125
7.94761
8.27336
8.61947
8.98735
9.37805
9.79365
10.2348
10.7054
11.2044
11.7396
12.3044
12.9188
13.5566
14.2747
14.9844
15.8558
16.6021
17.7522
4.66486
4.66607
4.69558
4.73042
4.77949
4.84056
4.9144
5.0009
5.10014
5.21219
5.33717
5.47521
5.6265
5.79128
5.96982
6.16248
6.36964
6.59177
6.8294
7.08312
7.3536
7.64162
7.948
8.27378
8.61991
8.98782
9.37856
9.79419
10.2354
10.706
11.205
11.7403
12.3051
12.9196
13.5574
14.2755
14.9852
15.8566
16.6028
17.7528
4.66465
4.66606
4.69556
4.73042
4.77952
4.84062
4.91448
5.001
5.10026
5.21234
5.33733
5.47539
5.6267
5.7915
5.97006
6.16273
6.36992
6.59207
6.82971
7.08345
7.35395
7.642
7.9484
8.2742
8.62036
8.9883
9.37906
9.79472
10.236
10.7066
11.2056
11.7409
12.3057
12.9203
13.5581
14.2762
14.9859
15.8573
16.6034
17.7529
4.66446
4.66604
4.69552
4.73041
4.77954
4.84066
4.91455
5.0011
5.10038
5.21248
5.33749
5.47557
5.6269
5.79172
5.9703
6.16299
6.37019
6.59236
6.83003
7.08379
7.35431
7.64237
7.9488
8.27462
8.62081
8.98876
9.37955
9.79523
10.2365
10.7072
11.2062
11.7415
12.3064
12.9209
13.5587
14.2768
14.9865
15.8577
16.6037
17.7525
4.6643
4.66601
4.69547
4.73038
4.77954
4.84069
4.91461
5.00118
5.10049
5.2126
5.33764
5.47574
5.62709
5.79192
5.97053
6.16324
6.37046
6.59265
6.83033
7.08411
7.35466
7.64274
7.94919
8.27503
8.62124
8.98921
9.38001
9.79572
10.237
10.7077
11.2068
11.7421
12.3069
12.9214
13.5592
14.2772
14.9868
15.8578
16.6037
17.7516
4.66414
4.66596
4.6954
4.73035
4.77954
4.84071
4.91466
5.00125
5.10058
5.21272
5.33778
5.4759
5.62727
5.79212
5.97074
6.16347
6.37071
6.59292
6.83063
7.08443
7.35499
7.64309
7.94956
8.27542
8.62164
8.98963
9.38045
9.79616
10.2375
10.7082
11.2072
11.7426
12.3074
12.9218
13.5596
14.2775
14.987
15.8577
16.6033
17.7502
4.66396
4.6659
4.69532
4.7303
4.77952
4.84072
4.91469
5.00131
5.10066
5.21282
5.3379
5.47604
5.62743
5.7923
5.97094
6.16369
6.37095
6.59318
6.8309
7.08472
7.35529
7.64341
7.9499
8.27577
8.62201
8.99001
9.38084
9.79656
10.2379
10.7086
11.2076
11.7429
12.3077
12.9221
13.5598
14.2775
14.9869
15.8572
16.6025
17.7481
4.66376
4.66583
4.69522
4.73023
4.77948
4.84071
4.91471
5.00135
5.10073
5.21291
5.33801
5.47617
5.62757
5.79246
5.97112
6.16389
6.37116
6.59341
6.83115
7.08498
7.35558
7.64371
7.95021
8.27609
8.62234
8.99035
9.38118
9.7969
10.2382
10.7089
11.2079
11.7432
12.3079
12.9223
13.5598
14.2774
14.9866
15.8564
16.6014
17.7454
4.66353
4.66573
4.69511
4.73014
4.77942
4.84069
4.91471
5.00138
5.10077
5.21298
5.3381
5.47628
5.6277
5.79261
5.97129
6.16407
6.37136
6.59362
6.83137
7.08522
7.35583
7.64397
7.95048
8.27637
8.62262
8.99064
9.38147
9.79718
10.2385
10.7092
11.2082
11.7434
12.308
12.9222
13.5597
14.277
14.9859
15.8552
16.5998
17.742
4.66329
4.66562
4.69497
4.73004
4.77935
4.84064
4.91469
5.00138
5.1008
5.21303
5.33817
5.47637
5.62781
5.79274
5.97143
6.16423
6.37153
6.59381
6.83157
7.08543
7.35605
7.6442
7.95072
8.27661
8.62287
8.99088
9.3817
9.7974
10.2387
10.7093
11.2083
11.7434
12.308
12.9221
13.5593
14.2763
14.985
15.8536
16.5977
17.7379
4.66302
4.66549
4.69482
4.72991
4.77926
4.84058
4.91465
5.00137
5.10081
5.21306
5.33822
5.47644
5.6279
5.79284
5.97155
6.16436
6.37168
6.59397
6.83174
7.08561
7.35624
7.6444
7.95091
8.27681
8.62306
8.99107
9.38187
9.79755
10.2388
10.7094
11.2083
11.7433
12.3078
12.9217
13.5588
14.2754
14.9838
15.8516
16.5951
17.7331
4.66274
4.66534
4.69464
4.72976
4.77914
4.84049
4.91459
5.00133
5.1008
5.21307
5.33825
5.47648
5.62796
5.79292
5.97164
6.16447
6.3718
6.5941
6.83188
7.08576
7.35639
7.64455
7.95106
8.27696
8.6232
8.99119
9.38197
9.79762
10.2388
10.7094
11.2082
11.7431
12.3074
12.9211
13.558
14.2742
14.9822
15.8491
16.592
17.7274
4.66243
4.66517
4.69444
4.7296
4.77901
4.84039
4.91451
5.00128
5.10077
5.21306
5.33825
5.47651
5.628
5.79297
5.97171
6.16455
6.37189
6.59419
6.83198
7.08586
7.3565
7.64466
7.95117
8.27705
8.62328
8.99125
9.382
9.7976
10.2388
10.7092
11.2079
11.7427
12.3069
12.9203
13.5569
14.2727
14.9802
15.8461
16.5884
17.7209
4.6621
4.66498
4.69422
4.72941
4.77885
4.84026
4.91441
5.0012
5.10071
5.21302
5.33823
5.4765
5.62801
5.793
5.97174
6.16459
6.37194
6.59425
6.83205
7.08593
7.35656
7.64472
7.95122
8.27709
8.62329
8.99123
9.38194
9.7975
10.2386
10.709
11.2075
11.7422
12.3061
12.9193
13.5556
14.2709
14.9779
15.8427
16.5841
17.7135
4.66174
4.66476
4.69397
4.72919
4.77866
4.8401
4.91428
5.00109
5.10062
5.21295
5.33819
5.47647
5.62799
5.79299
5.97175
6.16461
6.37196
6.59428
6.83207
7.08595
7.35658
7.64472
7.95121
8.27706
8.62324
8.99114
9.3818
9.79729
10.2383
10.7086
11.207
11.7415
12.3052
12.9181
13.554
14.2687
14.9751
15.8386
16.5793
17.7052
4.66136
4.66451
4.69369
4.72895
4.77845
4.83992
4.91412
5.00096
5.10051
5.21286
5.33811
5.47641
5.62794
5.79295
5.97172
6.16458
6.37194
6.59426
6.83205
7.08593
7.35654
7.64468
7.95114
8.27696
8.6231
8.99096
9.38157
9.79698
10.2379
10.708
11.2063
11.7406
12.304
12.9165
13.5521
14.2661
14.9719
15.8341
16.5738
17.6959
4.66095
4.66424
4.69339
4.72868
4.77821
4.83971
4.91394
5.0008
5.10037
5.21274
5.338
5.47631
5.62786
5.79288
5.97165
6.16452
6.37188
6.5942
6.83199
7.08585
7.35645
7.64457
7.95101
8.27679
8.62289
8.9907
9.38123
9.79656
10.2374
10.7074
11.2055
11.7395
12.3027
12.9148
13.5499
14.2632
14.9683
15.8289
16.5676
17.6856
4.66051
4.66395
4.69306
4.72838
4.77794
4.83947
4.91373
5.00061
5.1002
5.21258
5.33786
5.47618
5.62774
5.79276
5.97154
6.16441
6.37177
6.59408
6.83187
7.08572
7.3563
7.64439
7.9508
8.27655
8.6226
8.99033
9.38079
9.79602
10.2367
10.7065
11.2044
11.7382
12.3011
12.9127
13.5473
14.2598
14.9642
15.8231
16.5607
17.6743
4.66005
4.66362
4.69269
4.72806
4.77765
4.8392
4.91348
5.00038
5.09999
5.21239
5.33768
5.47602
5.62758
5.79261
5.97139
6.16426
6.37162
6.59392
6.83169
7.08553
7.35609
7.64415
7.95052
8.27622
8.62221
8.98987
9.38024
9.79535
10.2359
10.7056
11.2032
11.7366
12.2992
12.9103
13.5444
14.256
14.9596
15.8167
16.553
17.6618
4.65955
4.66326
4.6923
4.7277
4.77731
4.8389
4.9132
5.00012
5.09975
5.21217
5.33747
5.47581
5.62738
5.79242
5.9712
6.16406
6.37141
6.59371
6.83146
7.08527
7.35581
7.64383
7.95016
8.2758
8.62172
8.9893
9.37956
9.79455
10.235
10.7044
11.2017
11.7349
12.297
12.9077
13.5412
14.2518
14.9544
15.8095
16.5446
17.6483
4.65901
4.66286
4.69187
4.7273
4.77695
4.83856
4.91289
4.99983
5.09948
5.2119
5.33722
5.47557
5.62714
5.79218
5.97095
6.16381
6.37115
6.59343
6.83117
7.08495
7.35545
7.64343
7.94971
8.27529
8.62113
8.98861
9.37876
9.7936
10.2339
10.703
11.2001
11.7329
12.2946
12.9046
13.5375
14.247
14.9487
15.8017
16.5353
17.6335
4.65844
4.66243
4.6914
4.72687
4.77655
4.83819
4.91254
4.9995
5.09916
5.2116
5.33692
5.47528
5.62685
5.79189
5.97066
6.16351
6.37084
6.5931
6.83081
7.08456
7.35502
7.64295
7.94917
8.27467
8.62043
8.9878
9.37782
9.7925
10.2326
10.7015
11.1982
11.7306
12.2919
12.9013
13.5334
14.2418
14.9424
15.793
16.5252
17.6175
4.65785
4.66197
4.6909
4.72641
4.77611
4.83777
4.91215
4.99913
5.0988
5.21125
5.33658
5.47494
5.62652
5.79155
5.97031
6.16315
6.37046
6.59269
6.83037
7.08409
7.35451
7.64238
7.94853
8.27395
8.61961
8.98686
9.37673
9.79124
10.2311
10.6997
11.1961
11.728
12.2888
12.8975
13.5289
14.2361
14.9355
15.7836
16.5141
17.6003
4.6572
4.66146
4.69035
4.7259
4.77563
4.83732
4.91171
4.99871
5.0984
5.21086
5.33619
5.47455
5.62613
5.79115
5.9699
6.16273
6.37002
6.59222
6.82987
7.08354
7.35391
7.64172
7.94779
8.27312
8.61866
8.98578
9.37549
9.78981
10.2294
10.6977
11.1937
11.7252
12.2855
12.8934
13.5239
14.2297
14.928
15.7734
16.5022
17.5817
4.65651
4.66091
4.68976
4.72535
4.7751
4.83682
4.91124
4.99825
5.09795
5.21042
5.33576
5.47412
5.62569
5.7907
5.96944
6.16224
6.3695
6.59168
6.82928
7.08291
7.35321
7.64095
7.94694
8.27217
8.61759
8.98456
9.37409
9.78819
10.2275
10.6955
11.1911
11.722
12.2817
12.8888
13.5185
14.2228
14.9197
15.7622
16.4892
17.5617
4.65577
4.66031
4.68913
4.72475
4.77453
4.83628
4.91071
4.99774
5.09745
5.20993
5.33527
5.47362
5.62519
5.79019
5.96891
6.16169
6.36892
6.59106
6.82862
7.08219
7.35242
7.64008
7.94597
8.27108
8.61637
8.98318
9.37251
9.78638
10.2254
10.693
11.1882
11.7186
12.2776
12.8838
13.5125
14.2153
14.9108
15.7502
16.4752
17.5403
4.65499
4.65967
4.68845
4.72411
4.77391
4.83568
4.91014
4.99718
5.09691
5.20938
5.33472
5.47307
5.62462
5.78961
5.96831
6.16106
6.36826
6.59035
6.82786
7.08137
7.35152
7.6391
7.94488
8.26987
8.615
8.98163
9.37076
9.78437
10.2231
10.6902
11.185
11.7147
12.2731
12.8783
13.506
14.2071
14.9011
15.7372
16.4601
17.5174
4.65418
4.65898
4.68772
4.72342
4.77324
4.83504
4.90951
4.99657
5.0963
5.20878
5.33412
5.47246
5.624
5.78896
5.96764
6.16036
6.36751
6.58956
6.827
7.08044
7.35052
7.63799
7.94366
8.26851
8.61348
8.97991
9.36881
9.78214
10.2205
10.6872
11.1814
11.7106
12.2682
12.8723
13.4989
14.1983
14.8906
15.7232
16.4438
17.493
4.65333
4.65823
4.68693
4.72268
4.77252
4.83434
4.90883
4.9959
5.09564
5.20812
5.33345
5.47178
5.6233
5.78824
5.96689
6.15957
6.36668
6.58867
6.82605
7.07941
7.3494
7.63676
7.9423
8.26699
8.61179
8.97801
9.36665
9.77968
10.2177
10.6839
11.1775
11.706
12.2628
12.8658
13.4913
14.1887
14.8792
15.7081
16.4264
17.4671
4.65237
4.65743
4.68609
4.72188
4.77174
4.83359
4.90809
4.99517
5.09491
5.20739
5.33271
5.47103
5.62253
5.78745
5.96606
6.1587
6.36576
6.58768
6.82499
7.07827
7.34815
7.63539
7.94079
8.26532
8.60992
8.97591
9.36428
9.77698
10.2145
10.6802
11.1733
11.701
12.257
12.8588
13.483
14.1783
14.867
15.692
16.4078
17.4394
4.65137
4.65657
4.68519
4.72102
4.7709
4.83277
4.90729
4.99438
5.09412
5.20659
5.33191
5.47021
5.62169
5.78657
5.96514
6.15773
6.36473
6.58659
6.82382
7.077
7.34677
7.63389
7.93913
8.26348
8.60787
8.9736
9.36168
9.77403
10.2111
10.6762
11.1687
11.6956
12.2506
12.8512
13.474
14.1672
14.8539
15.6747
16.3879
17.4101
4.65035
4.65565
4.68422
4.7201
4.77
4.83189
4.90642
4.99352
5.09326
5.20573
5.33103
5.46931
5.62076
5.78561
5.96413
6.15667
6.36361
6.58539
6.82253
7.07561
7.34526
7.63223
7.9373
8.26146
8.60562
8.97108
9.35884
9.7708
10.2074
10.6719
11.1637
11.6897
12.2438
12.843
13.4644
14.1553
14.8399
15.6562
16.3666
17.3791
4.64925
4.65466
4.68319
4.71911
4.76902
4.83094
4.90548
4.99259
5.09233
5.20478
5.33007
5.46833
5.61974
5.78455
5.96303
6.15551
6.36237
6.58408
6.82112
7.07408
7.34359
7.63041
7.93531
8.25925
8.60316
8.96833
9.35574
9.76728
10.2034
10.6672
11.1583
11.6834
12.2364
12.8342
13.454
14.1424
14.8248
15.6365
16.3439
17.3462
4.64807
4.65361
4.68209
4.71805
4.76798
4.82992
4.90447
4.99158
5.09132
5.20376
5.32903
5.46726
5.61864
5.7834
5.96182
6.15424
6.36103
6.58264
6.81957
7.07241
7.34178
7.62842
7.93312
8.25684
8.60048
8.96534
9.35238
9.76345
10.1989
10.6621
11.1525
11.6766
12.2284
12.8247
13.4429
14.1287
14.8087
15.6155
16.3198
17.3115
4.64679
4.65248
4.68092
4.71692
4.76686
4.82882
4.90338
4.99049
5.09022
5.20265
5.32789
5.46609
5.61743
5.78214
5.96051
6.15285
6.35955
6.58106
6.81788
7.07058
7.3398
7.62626
7.93075
8.25421
8.59757
8.96208
9.34873
9.7593
10.1942
10.6567
11.1461
11.6692
12.2199
12.8145
13.4309
14.114
14.7915
15.5931
16.2941
17.2749
4.64549
4.65127
4.67966
4.71571
4.76567
4.82764
4.90221
4.98932
5.08904
5.20146
5.32667
5.46483
5.61613
5.78078
5.95908
6.15134
6.35795
6.57935
6.81605
7.0686
7.33764
7.62391
7.92817
8.25137
8.59441
8.95856
9.34478
9.75481
10.189
10.6507
11.1393
11.6613
12.2107
12.8036
13.4181
14.0983
14.7731
15.5694
16.2669
17.2363
4.64408
4.64998
4.67833
4.71442
4.76438
4.82638
4.90095
4.98806
5.08777
5.20016
5.32535
5.46347
5.61471
5.77931
5.95753
6.1497
6.35621
6.5775
6.81405
7.06645
7.33531
7.62136
7.92537
8.24828
8.59099
8.95476
9.34052
9.74994
10.1835
10.6444
11.132
11.6528
12.2008
12.7918
13.4045
14.0815
14.7535
15.5441
16.238
17.1956
4.6426
4.64861
4.67691
4.71304
4.76301
4.82502
4.8996
4.9867
5.0864
5.19877
5.32392
5.462
5.61318
5.77771
5.95585
6.14793
6.35433
6.57549
6.81189
7.06412
7.33278
7.6186
7.92235
8.24495
8.5873
8.95065
9.33592
9.74468
10.1775
10.6375
11.1242
11.6436
12.1903
12.7793
13.3899
14.0637
14.7327
15.5174
16.2075
17.1529
4.64105
4.64714
4.6754
4.71157
4.76155
4.82357
4.89815
4.98525
5.08493
5.19727
5.32238
5.46041
5.61153
5.77598
5.95404
6.14602
6.35229
6.57331
6.80956
7.0616
7.33004
7.61562
7.91908
8.24136
8.58333
8.94622
9.33095
9.73901
10.171
10.6301
11.1158
11.6339
12.179
12.766
13.3743
14.0447
14.7106
15.4891
16.1751
17.108
4.6394
4.64558
4.67379
4.71
4.75999
4.82202
4.8966
4.98369
5.08334
5.19565
5.32072
5.45869
5.60975
5.77412
5.95208
6.14395
6.3501
6.57096
6.80704
7.05888
7.3271
7.61241
7.91557
8.23749
8.57905
8.94147
9.32559
9.7329
10.1641
10.6223
11.1067
11.6234
12.1669
12.7517
13.3577
14.0245
14.6871
15.4592
16.1409
17.061
4.63762
4.64392
4.67207
4.70833
4.75832
4.82037
4.89494
4.98202
5.08165
5.19392
5.31894
5.45685
5.60784
5.77212
5.94997
6.14172
6.34773
6.56843
6.80432
7.05595
7.32392
7.60895
7.91178
8.23332
8.57444
8.93635
9.31981
9.72634
10.1567
10.6138
11.0971
11.6123
12.154
12.7365
13.3401
14.0031
14.6622
15.4275
16.1048
17.0116
4.63576
4.64215
4.67026
4.70656
4.75654
4.8186
4.89317
4.98023
5.07983
5.19206
5.31703
5.45488
5.60578
5.76997
5.94771
6.13932
6.34518
6.56571
6.8014
7.05279
7.3205
7.60523
7.90771
8.22885
8.56951
8.93086
9.3136
9.7193
10.1487
10.6048
11.0868
11.6003
12.1403
12.7203
13.3213
13.9804
14.6358
15.3942
16.0667
16.9599
4.63378
4.64027
4.66832
4.70466
4.75465
4.81671
4.89128
4.97831
5.07789
5.19007
5.31498
5.45275
5.60357
5.76765
5.94527
6.13675
6.34244
6.56279
6.79826
7.04941
7.31683
7.60123
7.90334
8.22405
8.56421
8.92495
9.30691
9.71176
10.1402
10.5951
11.0758
11.5876
12.1257
12.7031
13.3013
13.9563
14.6079
15.3589
16.0266
16.9059
4.63169
4.63827
4.66627
4.70265
4.75263
4.8147
4.88925
4.97627
5.0758
5.18794
5.31279
5.45048
5.6012
5.76517
5.94266
6.13398
6.3395
6.55965
6.79489
7.04577
7.3129
7.59695
7.89866
8.21891
8.55854
8.9186
9.29974
9.7037
10.1311
10.5848
11.064
11.5741
12.1101
12.6849
13.2802
13.9308
14.5783
15.3219
15.9844
16.8494
4.62952
4.63615
4.66409
4.70052
4.75049
4.81256
4.8871
4.97408
5.07358
5.18566
5.31044
5.44804
5.59866
5.76251
5.93986
6.13102
6.33635
6.55628
6.79127
7.04188
7.30868
7.59236
7.89365
8.21341
8.55246
8.91176
9.29206
9.69508
10.1214
10.5738
11.0515
11.5597
12.0936
12.6655
13.2578
13.9038
14.5471
15.2828
15.9399
16.7903
4.62722
4.63389
4.66178
4.69824
4.74821
4.81028
4.8848
4.97175
5.0712
5.18323
5.30793
5.44544
5.59594
5.75966
5.93686
6.12784
6.33297
6.55267
6.7874
7.0377
7.30416
7.58745
7.88828
8.20753
8.54594
8.90443
9.28386
9.68589
10.1111
10.5621
11.0382
11.5444
12.076
12.6449
13.234
13.8753
14.5142
15.2418
15.8932
16.7287
4.62475
4.63149
4.65934
4.69583
4.74578
4.80785
4.88234
4.96927
5.06867
5.18063
5.30524
5.44265
5.59304
5.75662
5.93365
6.12444
6.32936
6.54881
6.78326
7.03324
7.29933
7.5822
7.88255
8.20124
8.53893
8.89658
9.2751
9.67609
10.1001
10.5496
11.024
11.5281
12.0573
12.6231
13.2088
13.8452
14.4794
15.1986
15.8441
16.6645
4.62216
4.62895
4.65674
4.69327
4.7432
4.80526
4.87974
4.96662
5.06597
5.17785
5.30237
5.43968
5.58993
5.75336
5.93022
6.12081
6.3255
6.54468
6.77884
7.02847
7.29417
7.57659
7.87644
8.1945
8.53141
8.88819
9.26577
9.66564
10.0883
10.5363
11.0089
11.5108
12.0375
12.6001
13.1822
13.8135
14.4427
15.1533
15.7926
16.5976
4.61946
4.62626
4.65399
4.69055
4.74046
4.80252
4.87696
4.9638
5.06309
5.17489
5.29932
5.4365
5.58662
5.74988
5.92655
6.11693
6.32137
6.54028
6.77411
7.02338
7.28866
7.57061
7.86991
8.18728
8.52336
8.87925
9.25582
9.65451
10.0759
10.5222
10.9929
11.4925
12.0166
12.5756
13.1541
13.78
14.4041
15.1058
15.7386
16.5279
4.6166
4.6234
4.65107
4.68767
4.73756
4.7996
4.87401
4.9608
5.06002
5.17174
5.29606
5.43311
5.58308
5.74617
5.92264
6.11279
6.31697
6.53557
6.76906
7.01795
7.28279
7.56423
7.86293
8.17953
8.51475
8.86972
9.24523
9.64268
10.0626
10.5072
10.9759
11.4731
11.9944
12.5498
13.1244
13.7447
14.3635
15.056
15.682
16.4554
4.61353
4.62038
4.64798
4.68461
4.73447
4.79649
4.87087
4.9576
5.05675
5.16838
5.29258
5.4295
5.57931
5.74221
5.91847
6.10837
6.31227
6.53056
6.76368
7.01215
7.27652
7.55743
7.85545
8.17123
8.50559
8.85958
9.23397
9.6301
10.0485
10.4913
10.9579
11.4525
11.9709
12.5226
13.0931
13.7076
14.3208
15.0038
15.6228
16.38
4.61022
4.61717
4.64471
4.68136
4.7312
4.7932
4.86753
4.95421
5.05327
5.1648
5.28888
5.42566
5.57529
5.738
5.91402
6.10366
6.30726
6.52521
6.75795
7.00598
7.26985
7.55016
7.84743
8.16237
8.49583
8.84879
9.22199
9.61674
10.0335
10.4744
10.9389
11.4307
11.946
12.4938
13.06
13.6685
14.2759
14.9492
15.5608
16.3016
4.60682
4.61377
4.64125
4.67793
4.72773
4.7897
4.86399
4.9506
5.04958
5.161
5.28495
5.42156
5.57101
5.73351
5.90929
6.09865
6.30193
6.51951
6.75184
6.99941
7.26275
7.54238
7.83884
8.15294
8.48546
8.83733
9.20927
9.60255
10.0176
10.4565
10.9187
11.4077
11.9198
12.4634
13.0252
13.6274
14.2287
14.892
15.496
16.2202
4.60323
4.61017
4.63758
4.67428
4.72405
4.78599
4.86022
4.94676
5.04565
5.15695
5.28076
5.41721
5.56646
5.72873
5.90425
6.09331
6.29625
6.51345
6.74535
6.99242
7.25516
7.53404
7.82969
8.14292
8.47443
8.82514
9.19576
9.5875
10.0008
10.4376
10.8973
11.3833
11.8921
12.4314
12.9885
13.5843
14.1792
14.8323
15.4283
16.1358
4.5995
4.60636
4.6337
4.67043
4.72015
4.78206
4.85623
4.94269
5.04148
5.15265
5.27631
5.41258
5.56162
5.72364
5.89888
6.08763
6.29021
6.50701
6.73844
6.98498
7.24703
7.52513
7.81996
8.13226
8.46272
8.81221
9.18144
9.57154
9.98299
10.4175
10.8747
11.3576
11.8628
12.3977
12.9499
13.539
14.1273
14.7699
15.3576
16.0482
4.5955
4.60233
4.6296
4.66634
4.71601
4.77789
4.852
4.93837
5.03705
5.14808
5.27158
5.40765
5.55647
5.71823
5.89318
6.08159
6.28379
6.50016
6.7311
6.97701
7.23833
7.51565
7.80962
8.12094
8.45028
8.7985
9.16625
9.55464
9.96411
10.3963
10.8508
11.3305
11.832
12.3622
12.9094
13.4915
14.0729
14.7048
15.2838
15.9574
4.59128
4.59806
4.62526
4.66202
4.71164
4.77347
4.84751
4.93379
5.03234
5.14323
5.26655
5.40242
5.551
5.71249
5.88712
6.07518
6.27697
6.49288
6.72326
6.96849
7.22905
7.50557
7.79864
8.10893
8.43709
8.78395
9.15015
9.53674
9.94413
10.3739
10.8255
11.3018
11.7995
12.3249
12.8667
13.4417
14.016
14.6369
15.2069
15.8633
4.58676
4.59354
4.62067
4.65744
4.707
4.76878
4.84274
4.92892
5.02735
5.13808
5.26122
5.39687
5.54519
5.70639
5.88069
6.06836
6.26973
6.48513
6.71487
6.95938
7.2192
7.49487
7.78699
8.09619
8.42311
8.76854
9.1331
9.5178
9.92301
10.3502
10.7989
11.2716
11.7653
12.2856
12.8219
13.3895
13.9564
14.5661
15.1268
15.7659
4.58212
4.58877
4.61582
4.6526
4.7021
4.76382
4.8377
4.92377
5.02206
5.13262
5.25555
5.39097
5.53902
5.69991
5.87385
6.06113
6.26203
6.47684
6.70591
6.94971
7.20874
7.48353
7.77463
8.08268
8.4083
8.75222
9.11506
9.49777
9.90069
10.3252
10.7708
11.2398
11.7293
12.2443
12.7749
13.3349
13.894
14.4923
15.0434
15.6651
4.57717
4.58371
4.6107
4.64747
4.69691
4.75857
4.83235
4.9183
5.01645
5.12683
5.24955
5.38471
5.53248
5.69303
5.86661
6.05345
6.25381
6.46799
6.69638
6.93944
7.19764
7.47149
7.76153
8.06837
8.3926
8.73495
9.09598
9.47659
9.87711
10.2988
10.7412
11.2063
11.6914
12.201
12.7256
13.2777
13.8288
14.4155
14.9566
15.5608
4.57196
4.57836
4.60528
4.64205
4.69142
4.75301
4.82669
4.91251
5.0105
5.12069
5.24318
5.37808
5.52554
5.68575
5.85891
6.04526
6.24503
6.45856
6.68626
6.92855
7.18587
7.45873
7.74765
8.05322
8.37599
8.71668
9.07581
9.45422
9.85222
10.2709
10.7099
11.171
11.6515
12.1555
12.6739
13.2179
13.7608
14.3355
14.8663
15.453
4.56654
4.57271
4.59955
4.63632
4.68561
4.74712
4.8207
4.90638
5.0042
5.11418
5.23643
5.37105
5.51818
5.67801
5.85073
6.03652
6.23568
6.44856
6.67553
6.917
7.1734
7.44522
7.73295
8.03717
8.35842
8.69736
9.05449
9.43059
9.82596
10.2416
10.677
11.134
11.6096
12.1078
12.6197
13.1554
13.6897
14.2524
14.7725
15.3416
4.56077
4.56673
4.5935
4.63026
4.67947
4.74089
4.81435
4.89989
4.99752
5.10729
5.22928
5.3636
5.51038
5.66979
5.84198
6.0272
6.22574
6.43794
6.66415
6.90476
7.16019
7.4309
7.71739
8.0202
8.33984
8.67694
9.03197
9.40566
9.79826
10.2107
10.6424
11.095
11.5657
12.0578
12.563
13.0901
13.6156
14.166
14.6751
15.2265
4.55469
4.56042
4.58711
4.62386
4.67297
4.7343
4.80764
4.89302
4.99045
5.09999
5.2217
5.3557
5.50209
5.66101
5.83267
6.01731
6.21521
6.4267
6.65209
6.89179
7.14619
7.41575
7.70093
8.00225
8.3202
8.65537
9.0082
9.37936
9.76906
10.1781
10.606
11.054
11.5195
12.0054
12.5036
13.022
13.5383
14.0762
14.574
15.1077
4.54823
4.55377
4.58037
4.61709
4.6661
4.72734
4.80054
4.88575
4.98297
5.09226
5.21367
5.34729
5.49323
5.65166
5.82278
6.00682
6.20405
6.41478
6.63932
6.87806
7.13138
7.39972
7.68351
7.98327
8.29944
8.63259
8.98312
9.35163
9.7383
10.1438
10.5677
11.011
11.4711
11.9505
12.4415
12.9509
13.4578
13.983
14.4691
14.9851
4.54139
4.54678
4.57327
4.60995
4.65886
4.71997
4.79302
4.87804
4.97504
5.08404
5.2051
5.33832
5.48381
5.64174
5.81229
5.9957
6.19223
6.40215
6.6258
6.86353
7.11571
7.38276
7.66511
7.96321
8.27752
8.60855
8.95666
9.3224
9.70591
10.1078
10.5275
10.9658
11.4204
11.893
12.3767
12.8768
13.3739
13.8863
14.3605
14.8587
4.53415
4.53939
4.56578
4.60243
4.65121
4.71219
4.78506
4.86987
4.9666
5.07529
5.196
5.3288
5.47382
5.63122
5.80119
5.98393
6.17971
6.3888
6.6115
6.84816
7.09914
7.36484
7.64565
7.94204
8.25439
8.58319
8.92877
9.29162
9.67182
10.0699
10.4852
10.9184
11.3672
11.8329
12.3089
12.7995
13.2867
13.786
14.2479
14.7283
4.52639
4.53155
4.55785
4.59447
4.64313
4.70395
4.77664
4.86121
4.95766
5.06602
5.18634
5.31871
5.46325
5.6201
5.78944
5.97148
6.16647
6.37466
6.59637
6.8319
7.08162
7.3459
7.62511
7.91968
8.22999
8.55646
8.89939
9.25921
9.63597
10.03
10.4408
10.8687
11.3115
11.7701
12.2381
12.7191
13.1959
13.682
14.1313
14.594
4.51822
4.52327
4.54946
4.58604
4.63456
4.69523
4.76772
4.85204
4.9482
5.05622
5.17614
5.30805
5.45207
5.60833
5.77702
5.95832
6.15247
6.35973
6.58038
6.81473
7.06312
7.3259
7.60343
7.8961
8.20426
8.52829
8.86845
9.22511
9.59827
9.9882
10.3943
10.8167
11.2532
11.7045
12.1643
12.6353
13.1016
13.5743
14.0107
14.4557
4.50948
4.51452
4.54058
4.57712
4.6255
4.68601
4.75829
4.84235
4.9382
5.04585
5.16535
5.29679
5.44026
5.5959
5.76389
5.9444
6.13767
6.34394
6.56349
6.7966
7.04359
7.3048
7.58057
7.87124
8.17714
8.49862
8.83589
9.18925
9.55866
9.94429
10.3454
10.7622
11.1923
11.636
12.0873
12.5482
13.0036
13.4627
13.886
14.3133
4.50037
4.5053
4.53121
4.56769
4.61592
4.67625
4.74832
4.83211
4.92763
5.0349
5.15396
5.28488
5.42778
5.58277
5.75001
5.9297
6.12205
6.32728
6.54565
6.77746
7.02298
7.28254
7.55645
7.84504
8.14858
8.46739
8.80164
9.15157
9.51706
9.89821
10.2943
10.7051
11.1286
11.5644
12.0071
12.4576
12.9019
13.3473
13.7572
14.1667
4.49067
4.49557
4.52132
4.55773
4.6058
4.66594
4.73777
4.82128
4.91645
5.02332
5.14191
5.2723
5.41459
5.56889
5.73536
5.91418
6.10555
6.30968
6.52683
6.75726
7.00125
7.25908
7.53105
7.81744
8.11852
8.43454
8.76564
9.11197
9.4734
9.8499
10.2407
10.6454
11.062
11.4898
11.9236
12.3635
12.7964
13.2279
13.6241
14.016
4.48037
4.4853
4.51089
4.54721
4.59512
4.65505
4.72663
4.80983
4.90465
5.01109
5.12919
5.25901
5.40066
5.55424
5.71989
5.89779
6.08813
6.29111
6.50697
6.73596
6.97833
7.23435
7.50428
7.78838
8.08688
8.39999
8.7278
9.0704
9.4276
9.79926
10.1846
10.583
10.9925
11.4121
11.8366
12.2657
12.687
13.1045
13.4868
13.861
4.46952
4.47445
4.49987
4.53612
4.58384
4.64356
4.71487
4.79774
4.89217
4.99816
5.11574
5.24498
5.38594
5.53876
5.70356
5.88049
6.06975
6.27152
6.48603
6.7135
6.95417
7.20829
7.47609
7.7578
8.05361
8.36367
8.68805
9.02677
9.37957
9.74622
10.1259
10.5178
10.9199
11.331
11.7461
12.1642
12.5737
12.977
13.3451
13.7018
4.45802
4.46302
4.48826
4.52441
4.57195
4.63142
4.70245
4.78498
4.879
4.98451
5.10154
5.23015
5.3704
5.52241
5.68631
5.86223
6.05035
6.25085
6.46394
6.68982
6.92872
7.18085
7.44642
7.72563
8.01862
8.32552
8.64632
8.98099
9.32923
9.69069
10.0644
10.4497
10.8442
11.2467
11.6521
12.0589
12.4563
12.8454
13.1991
13.5382
4.44595
4.45096
4.47601
4.51206
4.55939
4.61862
4.68935
4.77151
4.86509
4.9701
5.08655
5.21449
5.35399
5.50516
5.6681
5.84295
6.02988
6.22905
6.44065
6.66487
6.9019
7.15195
7.41519
7.69178
7.98184
8.28543
8.60252
8.93299
9.27648
9.63257
10.0003
10.3786
10.7653
11.1589
11.5544
11.9498
12.3348
12.7095
13.0487
13.3703
4.43318
4.43824
4.4631
4.49903
4.54615
4.60511
4.67551
4.75728
4.85041
4.95488
5.07072
5.19796
5.33667
5.48694
5.64888
5.82262
6.00829
6.20606
6.41609
6.63857
6.87366
7.12153
7.38233
7.65619
7.94319
8.24334
8.55656
8.88267
9.22125
9.57178
9.93318
10.3044
10.6831
11.0675
11.4529
11.8367
12.2091
12.5693
12.8938
13.198
4.41963
4.42482
4.44948
4.48528
4.53218
4.59085
4.66091
4.74227
4.83491
4.93882
5.054
5.18051
5.31839
5.46772
5.6286
5.80116
5.98552
6.18182
6.39022
6.61086
6.84391
7.08951
7.34777
7.61878
7.90259
8.19916
8.50836
8.82995
9.16343
9.5082
9.86313
10.227
10.5975
10.9725
11.3475
11.7195
12.0791
12.4248
12.7344
13.0212
4.40542
4.41067
4.4351
4.47077
4.51743
4.5758
4.6455
4.72642
4.81855
4.92186
5.03636
5.16209
5.29909
5.44743
5.60721
5.77853
5.96151
6.15627
6.36295
6.58169
6.8126
7.05582
7.31142
7.57947
7.85995
8.15281
8.45783
8.77472
9.10293
9.44176
9.79001
10.1463
10.5084
10.8739
11.2382
11.5982
11.9449
12.2758
12.5704
12.84
4.39039
4.39573
4.41995
4.45546
4.50188
4.55993
4.62924
4.7097
4.80128
4.90397
5.01775
5.14266
5.27873
5.42604
5.58466
5.75468
5.9362
6.12935
6.33423
6.55097
6.77966
7.02039
7.27322
7.53817
7.8152
8.10418
8.40487
8.7169
9.03965
9.37235
9.71371
10.0623
10.4156
10.7714
11.1249
11.4728
11.8063
12.1224
12.4019
12.6543
4.37442
4.37996
4.40397
4.43932
4.48548
4.54319
4.6121
4.69207
4.78308
4.8851
4.99812
5.12217
5.25727
5.40348
5.56088
5.72953
5.90954
6.101
6.304
6.51864
6.745
6.98314
7.23308
7.49481
7.76824
8.0532
8.3494
8.65639
8.9735
9.29986
9.63414
9.97474
10.3192
10.665
11.0075
11.343
11.6632
11.9645
12.2288
12.4641
4.35779
4.36338
4.38714
4.42232
4.4682
4.52554
4.59402
4.67348
4.76388
4.8652
4.97743
5.10056
5.23464
5.37971
5.53582
5.70305
5.88146
6.07115
6.27218
6.48463
6.70856
6.94399
7.19092
7.4493
7.71899
7.99978
8.29131
8.5931
8.90438
9.22422
9.55119
9.88363
10.219
10.5546
10.8859
11.2089
11.5156
11.8021
12.0511
12.2694
4.34027
4.3459
4.36943
4.40441
4.45
4.50696
4.57498
4.65389
4.74365
4.84423
4.95562
5.0778
5.21081
5.35467
5.50943
5.67516
5.85191
6.03974
6.23871