/*--------------------------------*- C++ -*----------------------------------*\
| =========                 |                                                 |
| \\      /  F ield         | OpenFOAM: The Open Source CFD Toolbox           |
|  \\    /   O peration     | Version:  2006                                  |
|   \\  /    A nd           | Website:  www.openfoam.com                      |
|    \\/     M anipulation  |                                                 |
\*---------------------------------------------------------------------------*/
FoamFile
{
    version     2.0;
    format      ascii;
    class       surfaceScalarField;
    location    "6000";
    object      phi;
}
// * * * * * * * * * * * * * * * * * * * * * * * * * * * * * * * * * * * * * //

dimensions      [0 3 -1 0 0 0 0];
oriented        oriented;


internalField   nonuniform List<scalar> 
143613
(
9.62909e-07
5.17504e-09
9.60093e-07
2.81573e-09
9.57459e-07
2.63344e-09
9.54112e-07
3.34727e-09
9.50246e-07
3.86562e-09
9.4596e-07
4.286e-09
9.41313e-07
4.64744e-09
9.36332e-07
4.98148e-09
9.31029e-07
5.30243e-09
9.25409e-07
5.62037e-09
9.19465e-07
5.94325e-09
9.13189e-07
6.27616e-09
9.06565e-07
6.62409e-09
8.99574e-07
6.9916e-09
8.92192e-07
7.38176e-09
8.84394e-07
7.79739e-09
8.76153e-07
8.24173e-09
8.67434e-07
8.71841e-09
8.58202e-07
9.23207e-09
8.48415e-07
9.78733e-09
8.38024e-07
1.03909e-08
8.26976e-07
1.1048e-08
8.15207e-07
1.17687e-08
8.0265e-07
1.25578e-08
7.89215e-07
1.34351e-08
7.74816e-07
1.43983e-08
7.59324e-07
1.54927e-08
7.42619e-07
1.67041e-08
7.24502e-07
1.8117e-08
7.04906e-07
1.95969e-08
6.83475e-07
2.14306e-08
6.60218e-07
2.32572e-08
6.34345e-07
2.58728e-08
6.06305e-07
2.80399e-08
5.74132e-07
3.21735e-08
5.39835e-07
3.42964e-08
4.98111e-07
4.1724e-08
4.55936e-07
4.21752e-08
3.98703e-07
5.72327e-08
5.1654e-08
3.47049e-07
2.98758e-06
1.86552e-08
2.98053e-06
9.86745e-09
2.97312e-06
1.00448e-08
2.96374e-06
1.27238e-08
2.95275e-06
1.485e-08
2.9405e-06
1.65363e-08
2.92715e-06
1.79982e-08
2.91279e-06
1.93449e-08
2.89746e-06
2.06358e-08
2.88117e-06
2.19116e-08
2.8639e-06
2.32037e-08
2.84565e-06
2.45331e-08
2.82635e-06
2.59196e-08
2.80596e-06
2.7381e-08
2.78442e-06
2.89295e-08
2.76164e-06
3.05764e-08
2.73754e-06
3.23344e-08
2.71204e-06
3.4218e-08
2.68503e-06
3.62449e-08
2.65638e-06
3.84344e-08
2.62596e-06
4.08109e-08
2.59361e-06
4.33981e-08
2.55915e-06
4.62301e-08
2.52238e-06
4.93348e-08
2.48304e-06
5.27741e-08
2.44087e-06
5.65668e-08
2.39551e-06
6.08478e-08
2.34657e-06
6.56438e-08
2.29356e-06
7.11284e-08
2.2361e-06
7.70543e-08
2.17347e-06
8.40626e-08
2.10515e-06
9.15817e-08
2.02977e-06
1.0125e-07
1.94693e-06
1.10882e-07
1.85387e-06
1.2523e-07
1.75107e-06
1.37097e-07
1.63252e-06
1.60278e-07
1.50144e-06
1.73255e-07
1.34543e-06
2.13235e-07
2.28794e-07
1.1683e-06
5.16246e-06
3.55141e-08
5.15246e-06
1.98699e-08
5.14084e-06
2.16677e-08
5.12598e-06
2.75812e-08
5.10843e-06
3.23988e-08
5.08874e-06
3.62237e-08
5.06719e-06
3.95499e-08
5.04393e-06
4.26107e-08
5.01902e-06
4.55386e-08
4.99251e-06
4.8427e-08
4.96436e-06
5.13463e-08
4.93455e-06
5.43448e-08
4.90301e-06
5.74668e-08
4.86964e-06
6.07515e-08
4.83434e-06
6.42269e-08
4.797e-06
6.7918e-08
4.75748e-06
7.1853e-08
4.71563e-06
7.60648e-08
4.67128e-06
8.05925e-08
4.62424e-06
8.54794e-08
4.57427e-06
9.07788e-08
4.52112e-06
9.65456e-08
4.4645e-06
1.02851e-07
4.40407e-06
1.09767e-07
4.33943e-06
1.17413e-07
4.27014e-06
1.2586e-07
4.19562e-06
1.3537e-07
4.11518e-06
1.46083e-07
4.02809e-06
1.58221e-07
3.93362e-06
1.7152e-07
3.83076e-06
1.86921e-07
3.71834e-06
2.03998e-07
3.59468e-06
2.24917e-07
3.45807e-06
2.47494e-07
3.30572e-06
2.7758e-07
3.13523e-06
3.0758e-07
2.94219e-06
3.53322e-07
2.72192e-06
3.93519e-07
2.47097e-06
4.64188e-07
5.36635e-07
2.16313e-06
7.46365e-06
5.01461e-08
7.45202e-06
3.15026e-08
7.43685e-06
3.68308e-08
7.4172e-06
4.72308e-08
7.39387e-06
5.57281e-08
7.36755e-06
6.25527e-08
7.33859e-06
6.85039e-08
7.30722e-06
7.39781e-08
7.27356e-06
7.92055e-08
7.23763e-06
8.43544e-08
7.19943e-06
8.9549e-08
7.1589e-06
9.48761e-08
7.11595e-06
1.00414e-07
7.07047e-06
1.06231e-07
7.02232e-06
1.12378e-07
6.97134e-06
1.18897e-07
6.91735e-06
1.2584e-07
6.86015e-06
1.33263e-07
6.79951e-06
1.41237e-07
6.73515e-06
1.49837e-07
6.66677e-06
1.59156e-07
6.59403e-06
1.69292e-07
6.51651e-06
1.80367e-07
6.43377e-06
1.92513e-07
6.34525e-06
2.05928e-07
6.25035e-06
2.2076e-07
6.14827e-06
2.37448e-07
6.03806e-06
2.56293e-07
5.91874e-06
2.77546e-07
5.78926e-06
3.00992e-07
5.64831e-06
3.27875e-07
5.49415e-06
3.58153e-07
5.32466e-06
3.94416e-07
5.13708e-06
4.35068e-07
4.92818e-06
4.86481e-07
4.69349e-06
5.42271e-07
4.4287e-06
6.18109e-07
4.12396e-06
6.98266e-07
3.77906e-06
8.09088e-07
9.67816e-07
3.34787e-06
9.80062e-06
5.70151e-08
9.78828e-06
4.38356e-08
9.77025e-06
5.48664e-08
9.74675e-06
7.07254e-08
9.71878e-06
8.3704e-08
9.68704e-06
9.42942e-08
9.65197e-06
1.03567e-07
9.61385e-06
1.12096e-07
9.57283e-06
1.2023e-07
9.52895e-06
1.2823e-07
9.48221e-06
1.36288e-07
9.43255e-06
1.44539e-07
9.37986e-06
1.53104e-07
9.324e-06
1.62088e-07
9.26481e-06
1.71568e-07
9.2021e-06
1.81612e-07
9.13564e-06
1.92297e-07
9.06519e-06
2.03714e-07
8.99046e-06
2.15968e-07
8.91112e-06
2.29176e-07
8.8268e-06
2.4348e-07
8.73705e-06
2.59033e-07
8.6414e-06
2.76017e-07
8.53927e-06
2.94643e-07
8.43e-06
3.15201e-07
8.31282e-06
3.37943e-07
8.18673e-06
3.63531e-07
8.05056e-06
3.9247e-07
7.90309e-06
4.25014e-07
7.74302e-06
4.61057e-07
7.56872e-06
5.02179e-07
7.37798e-06
5.48891e-07
7.16821e-06
6.04194e-07
6.93579e-06
6.67485e-07
6.67687e-06
7.454e-07
6.38539e-06
8.33751e-07
6.05645e-06
9.47043e-07
5.67654e-06
1.07818e-06
5.24547e-06
1.24016e-06
1.50926e-06
4.70403e-06
1.20402e-05
5.95465e-08
1.20271e-05
5.68961e-08
1.20069e-05
7.5114e-08
1.19806e-05
9.70138e-08
1.19493e-05
1.15051e-07
1.19135e-05
1.30023e-07
1.18739e-05
1.43205e-07
1.18307e-05
1.5533e-07
1.1784e-05
1.66881e-07
1.1734e-05
1.7823e-07
1.16806e-05
1.89642e-07
1.16239e-05
2.01309e-07
1.15636e-05
2.13402e-07
1.14996e-05
2.26068e-07
1.14318e-05
2.39416e-07
1.13598e-05
2.53543e-07
1.12836e-05
2.68559e-07
1.12027e-05
2.84592e-07
1.11169e-05
3.01789e-07
1.10257e-05
3.20316e-07
1.09288e-05
3.4037e-07
1.08257e-05
3.62168e-07
1.07157e-05
3.85964e-07
1.05983e-05
4.12057e-07
1.04727e-05
4.40844e-07
1.03379e-05
4.72699e-07
1.01929e-05
5.08551e-07
1.00363e-05
5.49134e-07
9.86659e-06
5.94678e-07
9.68239e-06
6.45254e-07
9.48177e-06
7.02799e-07
9.26214e-06
7.68519e-07
9.02053e-06
8.45807e-07
8.75261e-06
9.35409e-07
8.45403e-06
1.04398e-06
8.11738e-06
1.1704e-06
7.73726e-06
1.32717e-06
7.29705e-06
1.51838e-06
6.79601e-06
1.7412e-06
2.13966e-06
6.1656e-06
1.41007e-05
6.18531e-08
1.40866e-05
7.09794e-08
1.40648e-05
9.69891e-08
1.40366e-05
1.25228e-07
1.40029e-05
1.48739e-07
1.39643e-05
1.68582e-07
1.39214e-05
1.86157e-07
1.38744e-05
2.02331e-07
1.38235e-05
2.1773e-07
1.37689e-05
2.32843e-07
1.37105e-05
2.48016e-07
1.36483e-05
2.63502e-07
1.35822e-05
2.79528e-07
1.3512e-05
2.96289e-07
1.34375e-05
3.13928e-07
1.33584e-05
3.32577e-07
1.32746e-05
3.52382e-07
1.31857e-05
3.73511e-07
1.30913e-05
3.9616e-07
1.29911e-05
4.20549e-07
1.28845e-05
4.46935e-07
1.27711e-05
4.75603e-07
1.26502e-05
5.06889e-07
1.2521e-05
5.41189e-07
1.23829e-05
5.79015e-07
1.22347e-05
6.20878e-07
1.20752e-05
6.68012e-07
1.1903e-05
7.21377e-07
1.17165e-05
7.81155e-07
1.15141e-05
8.47675e-07
1.12936e-05
9.23232e-07
1.10523e-05
1.00984e-06
1.07869e-05
1.11124e-06
1.04925e-05
1.22984e-06
1.01644e-05
1.37203e-06
9.79424e-06
1.54056e-06
9.37638e-06
1.74503e-06
8.89152e-06
2.00324e-06
8.33906e-06
2.29367e-06
2.83489e-06
7.64384e-06
1.59791e-05
6.60711e-08
1.59641e-05
8.59853e-08
1.59411e-05
1.19947e-07
1.59115e-05
1.54806e-07
1.58761e-05
1.84154e-07
1.58354e-05
2.09246e-07
1.579e-05
2.31577e-07
1.57402e-05
2.52179e-07
1.56861e-05
2.71807e-07
1.56279e-05
2.91052e-07
1.55656e-05
3.10343e-07
1.54991e-05
3.3e-07
1.54283e-05
3.50309e-07
1.53531e-05
3.71515e-07
1.52732e-05
3.93801e-07
1.51884e-05
4.17335e-07
1.50985e-05
4.42302e-07
1.50031e-05
4.68919e-07
1.49018e-05
4.9743e-07
1.47943e-05
5.28113e-07
1.46799e-05
5.61291e-07
1.45582e-05
5.97322e-07
1.44284e-05
6.36627e-07
1.42899e-05
6.79708e-07
1.41417e-05
7.27196e-07
1.39829e-05
7.79752e-07
1.38119e-05
8.38944e-07
1.36274e-05
9.05933e-07
1.34277e-05
9.80835e-07
1.32111e-05
1.06433e-06
1.29752e-05
1.15905e-06
1.27171e-05
1.26793e-06
1.24334e-05
1.39495e-06
1.21188e-05
1.5445e-06
1.17685e-05
1.72234e-06
1.13732e-05
1.93585e-06
1.09274e-05
2.19084e-06
1.04096e-05
2.52097e-06
9.82001e-06
2.88329e-06
3.5756e-06
9.0793e-06
1.77135e-05
7.19955e-08
1.7698e-05
1.01458e-07
1.76745e-05
1.43511e-07
1.7644e-05
1.85302e-07
1.76073e-05
2.20832e-07
1.7565e-05
2.5152e-07
1.75176e-05
2.78957e-07
1.74655e-05
3.04356e-07
1.74087e-05
3.28583e-07
1.73474e-05
3.52323e-07
1.72817e-05
3.76083e-07
1.72114e-05
4.00252e-07
1.71366e-05
4.25183e-07
1.70569e-05
4.5117e-07
1.69723e-05
4.78438e-07
1.68824e-05
5.07195e-07
1.6787e-05
5.37672e-07
1.66858e-05
5.70132e-07
1.65784e-05
6.04875e-07
1.64642e-05
6.42241e-07
1.63429e-05
6.82619e-07
1.62138e-05
7.26448e-07
1.60762e-05
7.74234e-07
1.59293e-05
8.26593e-07
1.57722e-05
8.84278e-07
1.56039e-05
9.48117e-07
1.5423e-05
1.01984e-06
1.5228e-05
1.10086e-06
1.50174e-05
1.19148e-06
1.4789e-05
1.29273e-06
1.45405e-05
1.40752e-06
1.42687e-05
1.5397e-06
1.39702e-05
1.69351e-06
1.36392e-05
1.87545e-06
1.32712e-05
2.09042e-06
1.28561e-05
2.35095e-06
1.23885e-05
2.65839e-06
1.18455e-05
3.06395e-06
1.12279e-05
3.50094e-06
4.34901e-06
1.04545e-05
1.9341e-05
7.83073e-08
1.93255e-05
1.17022e-07
1.93016e-05
1.67325e-07
1.92706e-05
2.16309e-07
1.92331e-05
2.58325e-07
1.91897e-05
2.94954e-07
1.91408e-05
3.2787e-07
1.90867e-05
3.58436e-07
1.90277e-05
3.8763e-07
1.89638e-05
4.16223e-07
1.8895e-05
4.44801e-07
1.88215e-05
4.73825e-07
1.87429e-05
5.03714e-07
1.86593e-05
5.34814e-07
1.85703e-05
5.67391e-07
1.84758e-05
6.01697e-07
1.83755e-05
6.38012e-07
1.8269e-05
6.76652e-07
1.81559e-05
7.17975e-07
1.80357e-05
7.62384e-07
1.7908e-05
8.10339e-07
1.77721e-05
8.6236e-07
1.76273e-05
9.19047e-07
1.74728e-05
9.81132e-07
1.73075e-05
1.0495e-06
1.71305e-05
1.12514e-06
1.69405e-05
1.20982e-06
1.67362e-05
1.30524e-06
1.65156e-05
1.41208e-06
1.62765e-05
1.53175e-06
1.60167e-05
1.66735e-06
1.57327e-05
1.82372e-06
1.5421e-05
2.0052e-06
1.5076e-05
2.22042e-06
1.46931e-05
2.4734e-06
1.42615e-05
2.78246e-06
1.37762e-05
3.14377e-06
1.32128e-05
3.6273e-06
1.25729e-05
4.14087e-06
5.14714e-06
1.17747e-05
2.08866e-05
8.48061e-08
2.08711e-05
1.32527e-07
2.08473e-05
1.91146e-07
2.0816e-05
2.47515e-07
2.07781e-05
2.96277e-07
2.07339e-05
3.39152e-07
2.06839e-05
3.77888e-07
2.06283e-05
4.13969e-07
2.05675e-05
4.48474e-07
2.05015e-05
4.82263e-07
2.04303e-05
5.15992e-07
2.03539e-05
5.502e-07
2.02722e-05
5.85374e-07
2.01851e-05
6.21904e-07
2.00924e-05
6.60099e-07
1.99939e-05
7.00259e-07
1.98892e-05
7.42718e-07
1.9778e-05
7.87849e-07
1.96599e-05
8.3607e-07
1.95344e-05
8.8785e-07
1.9401e-05
9.43721e-07
1.92591e-05
1.00429e-06
1.91079e-05
1.07025e-06
1.89466e-05
1.14245e-06
1.87742e-05
1.22191e-06
1.85895e-05
1.30981e-06
1.83913e-05
1.40795e-06
1.81783e-05
1.5183e-06
1.79485e-05
1.64188e-06
1.76997e-05
1.78054e-06
1.74294e-05
1.93762e-06
1.71342e-05
2.11892e-06
1.68106e-05
2.32885e-06
1.64529e-05
2.57808e-06
1.60565e-05
2.86981e-06
1.56104e-05
3.22853e-06
1.51094e-05
3.64478e-06
1.45287e-05
4.20804e-06
1.38703e-05
4.7993e-06
5.96428e-06
1.30531e-05
2.23704e-05
9.13521e-08
2.2355e-05
1.47905e-07
2.23313e-05
2.14823e-07
2.23002e-05
2.78694e-07
2.2262e-05
3.34417e-07
2.22174e-05
3.83799e-07
2.21666e-05
4.28657e-07
2.211e-05
4.7057e-07
2.20478e-05
5.10709e-07
2.198e-05
5.50014e-07
2.19068e-05
5.89211e-07
2.18281e-05
6.2892e-07
2.17438e-05
6.69695e-07
2.16537e-05
7.11959e-07
2.15577e-05
7.56064e-07
2.14556e-05
8.02368e-07
2.13471e-05
8.5126e-07
2.12318e-05
9.03174e-07
2.11092e-05
9.58588e-07
2.09791e-05
1.01804e-06
2.08406e-05
1.08214e-06
2.06933e-05
1.15157e-06
2.05365e-05
1.22714e-06
2.03691e-05
1.30982e-06
2.01902e-05
1.40075e-06
1.99988e-05
1.50129e-06
1.97934e-05
1.61335e-06
1.95726e-05
1.73911e-06
1.93345e-05
1.87992e-06
1.9077e-05
2.03809e-06
1.87974e-05
2.21721e-06
1.84922e-05
2.42407e-06
1.81579e-05
2.66316e-06
1.77888e-05
2.94719e-06
1.73801e-05
3.27853e-06
1.69209e-05
3.68772e-06
1.64058e-05
4.1599e-06
1.581e-05
4.80386e-06
1.51351e-05
5.47416e-06
6.79627e-06
1.43031e-05
2.3809e-05
9.79528e-08
2.37938e-05
1.6314e-07
2.37703e-05
2.3827e-07
2.37393e-05
3.09695e-07
2.37012e-05
3.72544e-07
2.36563e-05
4.28654e-07
2.36051e-05
4.79896e-07
2.35477e-05
5.27927e-07
2.34845e-05
5.73996e-07
2.34154e-05
6.19119e-07
2.33405e-05
6.64085e-07
2.32598e-05
7.09603e-07
2.31732e-05
7.56286e-07
2.30806e-05
8.04572e-07
2.29818e-05
8.54866e-07
2.28766e-05
9.07588e-07
2.27646e-05
9.63189e-07
2.26457e-05
1.02216e-06
2.25192e-05
1.08505e-06
2.23848e-05
1.15246e-06
2.22418e-05
1.22507e-06
2.20897e-05
1.30367e-06
2.19277e-05
1.38915e-06
2.17549e-05
1.48264e-06
2.15703e-05
1.58538e-06
2.13727e-05
1.6989e-06
2.11608e-05
1.82526e-06
2.0933e-05
1.96688e-06
2.06875e-05
2.12537e-06
2.04221e-05
2.30349e-06
2.01342e-05
2.50516e-06
1.98201e-05
2.73813e-06
1.94763e-05
3.00701e-06
1.90969e-05
3.32652e-06
1.86772e-05
3.69823e-06
1.82064e-05
4.15857e-06
1.76787e-05
4.68757e-06
1.70698e-05
5.41274e-06
1.63802e-05
6.16384e-06
7.64045e-06
1.5536e-05
2.5216e-05
1.04627e-07
2.52009e-05
1.78245e-07
2.51777e-05
2.61453e-07
2.51469e-05
3.40437e-07
2.5109e-05
4.10533e-07
2.50641e-05
4.73552e-07
2.50126e-05
5.31405e-07
2.49547e-05
5.85807e-07
2.48906e-05
6.38077e-07
2.48204e-05
6.89295e-07
2.47442e-05
7.40313e-07
2.46619e-05
7.91938e-07
2.45733e-05
8.44819e-07
2.44785e-05
8.99398e-07
2.43772e-05
9.56146e-07
2.42692e-05
1.01555e-06
2.41543e-05
1.07813e-06
2.4032e-05
1.14442e-06
2.3902e-05
1.21505e-06
2.37638e-05
1.29068e-06
2.36168e-05
1.37209e-06
2.34603e-05
1.46012e-06
2.32937e-05
1.55582e-06
2.31159e-05
1.66042e-06
2.2926e-05
1.77527e-06
2.27228e-05
1.9021e-06
2.2505e-05
2.0431e-06
2.22709e-05
2.20096e-06
2.20187e-05
2.37754e-06
2.17462e-05
2.57605e-06
2.14506e-05
2.80072e-06
2.11285e-05
3.06028e-06
2.0776e-05
3.35949e-06
2.03874e-05
3.71509e-06
1.99578e-05
4.12783e-06
1.94765e-05
4.63987e-06
1.89376e-05
5.22644e-06
1.83173e-05
6.03309e-06
1.76146e-05
6.86649e-06
8.49497e-06
1.67601e-05
2.66028e-05
1.11564e-07
2.65878e-05
1.93257e-07
2.65649e-05
2.84401e-07
2.65344e-05
3.70931e-07
2.64966e-05
4.48361e-07
2.64517e-05
5.18435e-07
2.64e-05
5.8309e-07
2.63417e-05
6.44086e-07
2.6277e-05
7.02799e-07
2.62059e-05
7.60366e-07
2.61285e-05
8.17698e-07
2.60448e-05
8.75698e-07
2.59546e-05
9.35035e-07
2.58578e-05
9.96154e-07
2.57543e-05
1.05961e-06
2.56439e-05
1.12595e-06
2.55263e-05
1.19576e-06
2.54011e-05
1.26963e-06
2.52679e-05
1.34826e-06
2.51262e-05
1.43237e-06
2.49755e-05
1.52283e-06
2.4815e-05
1.62057e-06
2.46441e-05
1.72676e-06
2.44617e-05
1.84275e-06
2.4267e-05
1.97001e-06
2.40587e-05
2.11041e-06
2.38354e-05
2.26636e-06
2.35956e-05
2.44083e-06
2.33372e-05
2.63587e-06
2.30581e-05
2.85516e-06
2.27556e-05
3.10326e-06
2.24259e-05
3.3899e-06
2.20655e-05
3.71992e-06
2.16685e-05
4.11213e-06
2.12298e-05
4.56645e-06
2.0739e-05
5.1307e-06
2.019e-05
5.77543e-06
1.95594e-05
6.66372e-06
1.88454e-05
7.58052e-06
9.35842e-06
1.79819e-05
2.79804e-05
1.18511e-07
2.79654e-05
2.08244e-07
2.79426e-05
3.07275e-07
2.79122e-05
4.01351e-07
2.78743e-05
4.8619e-07
2.78293e-05
5.63445e-07
2.77773e-05
6.35066e-07
2.77186e-05
7.02847e-07
2.76532e-05
7.68211e-07
2.75812e-05
8.3235e-07
2.75027e-05
8.96223e-07
2.74176e-05
9.60786e-07
2.73258e-05
1.02676e-06
2.72274e-05
1.09465e-06
2.71219e-05
1.16505e-06
2.70093e-05
1.23857e-06
2.68892e-05
1.31585e-06
2.67613e-05
1.39755e-06
2.66251e-05
1.48442e-06
2.64802e-05
1.57726e-06
2.6326e-05
1.67702e-06
2.61619e-05
1.78472e-06
2.5987e-05
1.90166e-06
2.58004e-05
2.02931e-06
2.56012e-05
2.16922e-06
2.53882e-05
2.32347e-06
2.51599e-05
2.49467e-06
2.49146e-05
2.68606e-06
2.46506e-05
2.89991e-06
2.43654e-05
3.14037e-06
2.40563e-05
3.41233e-06
2.37197e-05
3.72648e-06
2.33519e-05
4.08778e-06
2.29469e-05
4.51706e-06
2.24999e-05
5.01347e-06
2.20003e-05
5.63034e-06
2.1442e-05
6.33372e-06
2.0802e-05
7.30375e-06
2.00778e-05
8.30473e-06
1.02297e-05
1.92065e-05
2.93573e-05
1.25414e-07
2.93423e-05
2.23251e-07
2.93193e-05
3.30189e-07
2.92889e-05
4.31832e-07
2.92509e-05
5.24152e-07
2.92057e-05
6.08699e-07
2.91533e-05
6.8743e-07
2.9094e-05
7.62164e-07
2.90278e-05
8.34365e-07
2.89549e-05
9.0527e-07
2.88752e-05
9.75889e-07
2.87888e-05
1.0472e-06
2.86956e-05
1.11999e-06
2.85954e-05
1.19485e-06
2.8488e-05
1.27242e-06
2.83733e-05
1.35335e-06
2.82508e-05
1.43833e-06
2.81202e-05
1.52808e-06
2.79812e-05
1.62342e-06
2.78333e-05
1.72524e-06
2.76758e-05
1.83453e-06
2.7508e-05
1.95243e-06
2.73294e-05
2.08035e-06
2.71388e-05
2.21986e-06
2.69354e-05
2.37267e-06
2.67178e-05
2.54102e-06
2.64848e-05
2.72772e-06
2.62345e-05
2.93632e-06
2.59651e-05
3.16928e-06
2.56742e-05
3.43129e-06
2.5359e-05
3.72755e-06
2.50158e-05
4.06965e-06
2.46409e-05
4.46266e-06
2.42286e-05
4.92945e-06
2.37736e-05
5.46837e-06
2.32657e-05
6.13826e-06
2.26987e-05
6.90071e-06
2.205e-05
7.95251e-06
2.13165e-05
9.03819e-06
1.11081e-05
2.04382e-05
3.07391e-05
1.32283e-07
3.07241e-05
2.38282e-07
3.07011e-05
3.5315e-07
3.06706e-05
4.62386e-07
3.06325e-05
5.62254e-07
3.0587e-05
6.54193e-07
3.05343e-05
7.40166e-07
3.04744e-05
8.22006e-07
3.04076e-05
9.01215e-07
3.03338e-05
9.7907e-07
3.0253e-05
1.05663e-06
3.01653e-05
1.13489e-06
3.00706e-05
1.2147e-06
2.99687e-05
1.29675e-06
2.98594e-05
1.38169e-06
2.97425e-05
1.47024e-06
2.96177e-05
1.56314e-06
2.94846e-05
1.66117e-06
2.93429e-05
1.7652e-06
2.91919e-05
1.87621e-06
2.90311e-05
1.99528e-06
2.88599e-05
2.12363e-06
2.86775e-05
2.26274e-06
2.84831e-05
2.41434e-06
2.82755e-05
2.58028e-06
2.80535e-05
2.76299e-06
2.78158e-05
2.96544e-06
2.75606e-05
3.19145e-06
2.72862e-05
3.44375e-06
2.69898e-05
3.72765e-06
2.66687e-05
4.04864e-06
2.63192e-05
4.41914e-06
2.59376e-05
4.84427e-06
2.55181e-05
5.34896e-06
2.50557e-05
5.93081e-06
2.45399e-05
6.65406e-06
2.39647e-05
7.47592e-06
2.33077e-05
8.60951e-06
2.25656e-05
9.78026e-06
1.19928e-05
2.16808e-05
3.21309e-05
1.39169e-07
3.21158e-05
2.53352e-07
3.20928e-05
3.76177e-07
3.20621e-05
4.93034e-07
3.20239e-05
6.00512e-07
3.19781e-05
6.99936e-07
3.1925e-05
7.93271e-07
3.18647e-05
8.82359e-07
3.17971e-05
9.68734e-07
3.17225e-05
1.05371e-06
3.16407e-05
1.1384e-06
3.15518e-05
1.2238e-06
3.14557e-05
1.31085e-06
3.13522e-05
1.40027e-06
3.12411e-05
1.49279e-06
3.11221e-05
1.58917e-06
3.09951e-05
1.69019e-06
3.08595e-05
1.79671e-06
3.07151e-05
1.90966e-06
3.05612e-05
2.03009e-06
3.03973e-05
2.15916e-06
3.02228e-05
2.29819e-06
3.00368e-05
2.44875e-06
2.98384e-05
2.61268e-06
2.96267e-05
2.79202e-06
2.94003e-05
2.98936e-06
2.91579e-05
3.20782e-06
2.88979e-05
3.45146e-06
2.86184e-05
3.72327e-06
2.83167e-05
4.02931e-06
2.79899e-05
4.37543e-06
2.76343e-05
4.77473e-06
2.72462e-05
5.23239e-06
2.68198e-05
5.77537e-06
2.63501e-05
6.40052e-06
2.58267e-05
7.17745e-06
2.52436e-05
8.05904e-06
2.45787e-05
9.27438e-06
2.38285e-05
1.05305e-05
1.28835e-05
2.29379e-05
3.35366e-05
1.46073e-07
3.35215e-05
2.68482e-07
3.34984e-05
3.99292e-07
3.34676e-05
5.23802e-07
3.34292e-05
6.38949e-07
3.33832e-05
7.45944e-07
3.33297e-05
8.46751e-07
3.32688e-05
9.43219e-07
3.32006e-05
1.03691e-06
3.31252e-05
1.12917e-06
3.30424e-05
1.22115e-06
3.29523e-05
1.3139e-06
3.28548e-05
1.40836e-06
3.27497e-05
1.50535e-06
3.26369e-05
1.60565e-06
3.2516e-05
1.71005e-06
3.23868e-05
1.81941e-06
3.22488e-05
1.93463e-06
3.21018e-05
2.05672e-06
3.19451e-05
2.18678e-06
3.17782e-05
2.32608e-06
3.16003e-05
2.47602e-06
3.14108e-05
2.63827e-06
3.12087e-05
2.8148e-06
3.09929e-05
3.00779e-06
3.07623e-05
3.22002e-06
3.05153e-05
3.45477e-06
3.02504e-05
3.71636e-06
2.99658e-05
4.0079e-06
2.96588e-05
4.33627e-06
2.93264e-05
4.70783e-06
2.89648e-05
5.13632e-06
2.85703e-05
5.62688e-06
2.81372e-05
6.20851e-06
2.76604e-05
6.8773e-06
2.71297e-05
7.70819e-06
2.65389e-05
8.64981e-06
2.58664e-05
9.94685e-06
2.51084e-05
1.12884e-05
1.37797e-05
2.42122e-05
3.496e-05
1.53062e-07
3.49448e-05
2.83702e-07
3.49215e-05
4.22521e-07
3.48906e-05
5.54719e-07
3.4852e-05
6.77595e-07
3.48057e-05
7.92241e-07
3.47518e-05
9.00624e-07
3.46904e-05
1.00459e-06
3.46216e-05
1.10574e-06
3.45453e-05
1.20544e-06
3.44616e-05
1.30488e-06
3.43704e-05
1.40514e-06
3.42715e-05
1.50721e-06
3.41649e-05
1.61196e-06
3.40503e-05
1.72023e-06
3.39275e-05
1.83285e-06
3.37962e-05
1.95074e-06
3.3656e-05
2.07487e-06
3.35064e-05
2.2063e-06
3.33469e-05
2.34622e-06
3.31771e-05
2.49597e-06
3.2996e-05
2.65706e-06
3.28031e-05
2.83123e-06
3.25972e-05
3.02061e-06
3.23775e-05
3.2275e-06
3.21427e-05
3.45489e-06
3.18912e-05
3.70621e-06
3.16216e-05
3.98604e-06
3.13318e-05
4.29764e-06
3.10195e-05
4.6486e-06
3.06815e-05
5.04585e-06
3.03139e-05
5.50384e-06
2.99132e-05
6.02764e-06
2.94734e-05
6.64825e-06
2.89897e-05
7.36102e-06
2.84518e-05
8.24616e-06
2.78535e-05
9.24805e-06
2.71736e-05
1.06267e-05
2.64081e-05
1.2054e-05
1.46812e-05
2.55066e-05
3.64041e-05
1.60121e-07
3.63888e-05
2.99036e-07
3.63654e-05
4.45893e-07
3.63343e-05
5.85819e-07
3.62954e-05
7.1648e-07
3.62488e-05
8.38855e-07
3.61945e-05
9.54911e-07
3.61326e-05
1.0665e-06
3.60631e-05
1.17523e-06
3.59861e-05
1.28252e-06
3.59014e-05
1.38957e-06
3.5809e-05
1.49751e-06
3.57088e-05
1.60736e-06
3.56007e-05
1.72006e-06
3.54845e-05
1.83648e-06
3.53598e-05
1.95752e-06
3.52264e-05
2.08414e-06
3.50839e-05
2.21737e-06
3.49319e-05
2.35836e-06
3.47697e-05
2.50836e-06
3.45969e-05
2.66877e-06
3.44128e-05
2.84123e-06
3.42164e-05
3.02757e-06
3.4007e-05
3.23004e-06
3.37834e-05
3.45109e-06
3.35444e-05
3.6939e-06
3.32885e-05
3.96206e-06
3.30142e-05
4.26042e-06
3.27194e-05
4.5924e-06
3.24017e-05
4.96629e-06
3.20581e-05
5.3895e-06
3.16846e-05
5.87728e-06
3.12777e-05
6.43461e-06
3.08314e-05
7.09452e-06
3.03408e-05
7.85159e-06
2.97957e-05
8.79123e-06
2.91901e-05
9.85366e-06
2.8503e-05
1.13139e-05
2.77301e-05
1.28269e-05
1.55878e-05
2.68235e-05
3.78719e-05
1.67376e-07
3.78565e-05
3.14516e-07
3.78329e-05
4.69438e-07
3.78016e-05
6.17133e-07
3.77624e-05
7.55639e-07
3.77155e-05
8.85818e-07
3.76608e-05
1.00964e-06
3.75983e-05
1.12896e-06
3.75281e-05
1.2454e-06
3.74502e-05
1.36041e-06
3.73646e-05
1.47523e-06
3.72711e-05
1.59101e-06
3.71696e-05
1.70882e-06
3.706e-05
1.82963e-06
3.69421e-05
1.95438e-06
3.68156e-05
2.08403e-06
3.66802e-05
2.21957e-06
3.65355e-05
2.36212e-06
3.63809e-05
2.51286e-06
3.62162e-05
2.67314e-06
3.60405e-05
2.84445e-06
3.58532e-05
3.0285e-06
3.56535e-05
3.22725e-06
3.54405e-05
3.44304e-06
3.52131e-05
3.67851e-06
3.497e-05
3.93699e-06
3.47098e-05
4.22227e-06
3.44308e-05
4.53945e-06
3.41311e-05
4.89212e-06
3.38081e-05
5.28929e-06
3.34588e-05
5.73879e-06
3.30795e-05
6.25661e-06
3.26663e-05
6.84778e-06
3.22135e-05
7.54729e-06
3.17161e-05
8.34897e-06
3.1164e-05
9.34334e-06
3.05511e-05
1.04666e-05
2.98568e-05
1.20082e-05
2.90767e-05
1.3607e-05
1.64994e-05
2.81651e-05
3.9366e-05
1.74766e-07
3.93503e-05
3.30163e-07
3.93266e-05
4.93186e-07
3.9295e-05
6.48698e-07
3.92556e-05
7.95107e-07
3.92082e-05
9.33166e-07
3.9153e-05
1.06485e-06
3.909e-05
1.192e-06
3.90191e-05
1.31627e-06
3.89404e-05
1.43913e-06
3.88537e-05
1.56186e-06
3.87591e-05
1.68564e-06
3.86564e-05
1.81157e-06
3.85453e-05
1.94067e-06
3.84258e-05
2.07393e-06
3.82974e-05
2.21236e-06
3.816e-05
2.35702e-06
3.8013e-05
2.50908e-06
3.78561e-05
2.66978e-06
3.76887e-05
2.84055e-06
3.75102e-05
3.02297e-06
3.73199e-05
3.21884e-06
3.71169e-05
3.43021e-06
3.69003e-05
3.65959e-06
3.66691e-05
3.90971e-06
3.6422e-05
4.18413e-06
3.61575e-05
4.48679e-06
3.58738e-05
4.82308e-06
3.55692e-05
5.19676e-06
3.52409e-05
5.61757e-06
3.4886e-05
6.09369e-06
3.45008e-05
6.64184e-06
3.40814e-05
7.26714e-06
3.36222e-05
8.00653e-06
3.3118e-05
8.85311e-06
3.25589e-05
9.90247e-06
3.19388e-05
1.10867e-05
3.12374e-05
1.27096e-05
3.045e-05
1.43944e-05
1.74158e-05
2.95335e-05
4.08887e-05
1.82247e-07
4.08729e-05
3.46e-07
4.08489e-05
5.17169e-07
4.0817e-05
6.80548e-07
4.07772e-05
8.34923e-07
4.07294e-05
9.80935e-07
4.06737e-05
1.12056e-06
4.06101e-05
1.25565e-06
4.05385e-05
1.38787e-06
4.04589e-05
1.51871e-06
4.03713e-05
1.64949e-06
4.02755e-05
1.78141e-06
4.01714e-05
1.91562e-06
4.00589e-05
2.05318e-06
3.99377e-05
2.19513e-06
3.98076e-05
2.34252e-06
3.96681e-05
2.49649e-06
3.9519e-05
2.65823e-06
3.93596e-05
2.8291e-06
3.91896e-05
3.01057e-06
3.90083e-05
3.2043e-06
3.88149e-05
3.41221e-06
3.86087e-05
3.63646e-06
3.83886e-05
3.87964e-06
3.81536e-05
4.14468e-06
3.79025e-05
4.43529e-06
3.76337e-05
4.75561e-06
3.73455e-05
5.11128e-06
3.70359e-05
5.50629e-06
3.67024e-05
5.9511e-06
3.63419e-05
6.45418e-06
3.59508e-05
7.03296e-06
3.55253e-05
7.69268e-06
3.50595e-05
8.47225e-06
3.45486e-05
9.36403e-06
3.39825e-05
1.04686e-05
3.33551e-05
1.17141e-05
3.26466e-05
1.34181e-05
3.18522e-05
1.51889e-05
1.83371e-05
3.09309e-05
4.24423e-05
1.89908e-07
4.24263e-05
3.62053e-07
4.2402e-05
5.41416e-07
4.23698e-05
7.12717e-07
4.23296e-05
8.75123e-07
4.22814e-05
1.02916e-06
4.22251e-05
1.17683e-06
4.21608e-05
1.31996e-06
4.20885e-05
1.46023e-06
4.2008e-05
1.59918e-06
4.19194e-05
1.73813e-06
4.18224e-05
1.87834e-06
4.17171e-05
2.02098e-06
4.16031e-05
2.16716e-06
4.14802e-05
2.31797e-06
4.13483e-05
2.47451e-06
4.12068e-05
2.63796e-06
4.10554e-05
2.80959e-06
4.08937e-05
2.99082e-06
4.07211e-05
3.18319e-06
4.05369e-05
3.38846e-06
4.03405e-05
3.60863e-06
4.0131e-05
3.84596e-06
3.99075e-05
4.1032e-06
3.96687e-05
4.3834e-06
3.94136e-05
4.69046e-06
3.91405e-05
5.02871e-06
3.88477e-05
5.40404e-06
3.85333e-05
5.82069e-06
3.81945e-05
6.28986e-06
3.78285e-05
6.82024e-06
3.74315e-05
7.42995e-06
3.69998e-05
8.1244e-06
3.65276e-05
8.94445e-06
3.60099e-05
9.88173e-06
3.54368e-05
1.10417e-05
3.48022e-05
1.23487e-05
3.40866e-05
1.41337e-05
3.3285e-05
1.59905e-05
1.92632e-05
3.23589e-05
4.40289e-05
1.97749e-07
4.40126e-05
3.78342e-07
4.39881e-05
5.65954e-07
4.39556e-05
7.45239e-07
4.3915e-05
9.15746e-07
4.38662e-05
1.07789e-06
4.38094e-05
1.23368e-06
4.37444e-05
1.38495e-06
4.36712e-05
1.53339e-06
4.35898e-05
1.68056e-06
4.35002e-05
1.82783e-06
4.3402e-05
1.97647e-06
4.32953e-05
2.12769e-06
4.31798e-05
2.28265e-06
4.30553e-05
2.44248e-06
4.29215e-05
2.60833e-06
4.2778e-05
2.78144e-06
4.26245e-05
2.96316e-06
4.24603e-05
3.15493e-06
4.22851e-05
3.35841e-06
4.20981e-05
3.57543e-06
4.18987e-05
3.80807e-06
4.16859e-05
4.05873e-06
4.14589e-05
4.33027e-06
4.12164e-05
4.62587e-06
4.09572e-05
4.94964e-06
4.06798e-05
5.30609e-06
4.03825e-05
5.70135e-06
4.00632e-05
6.13998e-06
3.97193e-05
6.63384e-06
3.93477e-05
7.19184e-06
3.89448e-05
7.83282e-06
3.85069e-05
8.56232e-06
3.80282e-05
9.42314e-06
3.75037e-05
1.04062e-05
3.69236e-05
1.16218e-05
3.62817e-05
1.29905e-05
3.55591e-05
1.48563e-05
3.47504e-05
1.67992e-05
2.01941e-05
3.38195e-05
4.56506e-05
2.05763e-07
4.56341e-05
3.9489e-07
4.56092e-05
5.90813e-07
4.55763e-05
7.7815e-07
4.55352e-05
9.56829e-07
4.54859e-05
1.12716e-06
4.54285e-05
1.29116e-06
4.53627e-05
1.45067e-06
4.52888e-05
1.60739e-06
4.52064e-05
1.7629e-06
4.51156e-05
1.91861e-06
4.50163e-05
2.07581e-06
4.49082e-05
2.23576e-06
4.47912e-05
2.39966e-06
4.4665e-05
2.56867e-06
4.45293e-05
2.74401e-06
4.43838e-05
2.92697e-06
4.4228e-05
3.11894e-06
4.40615e-05
3.32147e-06
4.38837e-05
3.53625e-06
4.36939e-05
3.76522e-06
4.34914e-05
4.01056e-06
4.32753e-05
4.27477e-06
4.30448e-05
4.56083e-06
4.27985e-05
4.8721e-06
4.25354e-05
5.21283e-06
4.22537e-05
5.58774e-06
4.19518e-05
6.00322e-06
4.16276e-05
6.46416e-06
4.12784e-05
6.98306e-06
4.09013e-05
7.56898e-06
4.04925e-05
8.24156e-06
4.00484e-05
9.00645e-06
3.95632e-05
9.90834e-06
3.90319e-05
1.09375e-05
3.84447e-05
1.2209e-05
3.77956e-05
1.36396e-05
3.70659e-05
1.5586e-05
3.62501e-05
1.7615e-05
2.11297e-05
3.53145e-05
4.73093e-05
2.1402e-07
4.72925e-05
4.11716e-07
4.72673e-05
6.16017e-07
4.7234e-05
8.1148e-07
4.71924e-05
9.98409e-07
4.71425e-05
1.17701e-06
4.70844e-05
1.34932e-06
4.70179e-05
1.51716e-06
4.6943e-05
1.68227e-06
4.68597e-05
1.84624e-06
4.67678e-05
2.01051e-06
4.66672e-05
2.17641e-06
4.65577e-05
2.34524e-06
4.64391e-05
2.51822e-06
4.63112e-05
2.69657e-06
4.61737e-05
2.88157e-06
4.60261e-05
3.07455e-06
4.5868e-05
3.27697e-06
4.56991e-05
3.49043e-06
4.55186e-05
3.71673e-06
4.5326e-05
3.95785e-06
4.51204e-05
4.21611e-06
4.49011e-05
4.49409e-06
4.4667e-05
4.79493e-06
4.4417e-05
5.12209e-06
4.41498e-05
5.48006e-06
4.38638e-05
5.8737e-06
4.35574e-05
6.30967e-06
4.32283e-05
6.79326e-06
4.28738e-05
7.33754e-06
4.24911e-05
7.95169e-06
4.20765e-05
8.65619e-06
4.16261e-05
9.4568e-06
4.11344e-05
1.04001e-05
4.05962e-05
1.14757e-05
4.00019e-05
1.28033e-05
3.93455e-05
1.4296e-05
3.86087e-05
1.63228e-05
3.77858e-05
1.84379e-05
2.207e-05
3.68455e-05
4.90069e-05
2.22486e-07
4.89898e-05
4.28839e-07
4.89642e-05
6.41592e-07
4.89304e-05
8.45262e-07
4.88883e-05
1.04052e-06
4.88379e-05
1.22749e-06
4.8779e-05
1.40819e-06
4.87117e-05
1.58446e-06
4.86359e-05
1.75807e-06
4.85515e-05
1.93062e-06
4.84584e-05
2.10358e-06
4.83565e-05
2.27832e-06
4.82456e-05
2.45616e-06
4.81255e-05
2.63837e-06
4.79958e-05
2.82623e-06
4.78563e-05
3.02105e-06
4.77067e-05
3.22422e-06
4.75464e-05
3.43727e-06
4.73749e-05
3.66186e-06
4.71918e-05
3.89986e-06
4.69963e-05
4.15336e-06
4.67877e-05
4.42474e-06
4.6565e-05
4.71673e-06
4.63274e-05
5.03257e-06
4.60736e-05
5.37588e-06
4.58023e-05
5.75133e-06
4.5512e-05
6.16399e-06
4.5201e-05
6.62072e-06
4.48669e-05
7.1273e-06
4.45072e-05
7.6973e-06
4.41189e-05
8.34e-06
4.36983e-05
9.07675e-06
4.32417e-05
9.91341e-06
4.27434e-05
1.08984e-05
4.21983e-05
1.20208e-05
4.15969e-05
1.34046e-05
4.09332e-05
1.49598e-05
4.01893e-05
1.70666e-05
3.93593e-05
1.9268e-05
2.30151e-05
3.84142e-05
5.07453e-05
2.31188e-07
5.07279e-05
4.46276e-07
5.07019e-05
6.67562e-07
5.06676e-05
8.79527e-07
5.0625e-05
1.08321e-06
5.05738e-05
1.27862e-06
5.05142e-05
1.46782e-06
5.0446e-05
1.65263e-06
5.03693e-05
1.83484e-06
5.02838e-05
2.01608e-06
5.01895e-05
2.19785e-06
5.00863e-05
2.38156e-06
4.99739e-05
2.56856e-06
4.98521e-05
2.76016e-06
4.97206e-05
2.95767e-06
4.95792e-05
3.16248e-06
4.94274e-05
3.37602e-06
4.92648e-05
3.59987e-06
4.90909e-05
3.83579e-06
4.8905e-05
4.08569e-06
4.87066e-05
4.35176e-06
4.84949e-05
4.6365e-06
4.82689e-05
4.94271e-06
4.80277e-05
5.27378e-06