/*--------------------------------*- C++ -*----------------------------------*\
| =========                 |                                                 |
| \\      /  F ield         | OpenFOAM: The Open Source CFD Toolbox           |
|  \\    /   O peration     | Version:  2006                                  |
|   \\  /    A nd           | Website:  www.openfoam.com                      |
|    \\/     M anipulation  |                                                 |
\*---------------------------------------------------------------------------*/
FoamFile
{
    version     2.0;
    format      ascii;
    class       volVectorField;
    location    "6000";
    object      U;
}
// * * * * * * * * * * * * * * * * * * * * * * * * * * * * * * * * * * * * * //

dimensions      [0 1 -1 0 0 0 0];


internalField   nonuniform List<vector> 
72100
(
(0.401686 1.63929e-05 0)
(0.40073 4.02055e-06 0)
(0.399585 2.85849e-06 0)
(0.398382 4.04843e-06 0)
(0.396849 4.45728e-06 0)
(0.395147 4.94931e-06 0)
(0.393281 5.34766e-06 0)
(0.391274 5.73919e-06 0)
(0.38913 6.12541e-06 0)
(0.386855 6.51848e-06 0)
(0.384446 6.92721e-06 0)
(0.381901 7.35649e-06 0)
(0.379215 7.81266e-06 0)
(0.376381 8.30196e-06 0)
(0.373389 8.82838e-06 0)
(0.370229 9.39617e-06 0)
(0.36689 1.00105e-05 0)
(0.36336 1.06764e-05 0)
(0.359624 1.1402e-05 0)
(0.355666 1.21926e-05 0)
(0.351467 1.30619e-05 0)
(0.347006 1.40128e-05 0)
(0.342259 1.50707e-05 0)
(0.337199 1.62253e-05 0)
(0.331791 1.75408e-05 0)
(0.326005 1.89569e-05 0)
(0.319787 2.0639e-05 0)
(0.313102 2.23827e-05 0)
(0.305849 2.46681e-05 0)
(0.298033 2.66706e-05 0)
(0.289465 2.99316e-05 0)
(0.280262 3.19535e-05 0)
(0.269923 3.74385e-05 0)
(0.258983 3.82064e-05 0)
(0.246049 4.92613e-05 0)
(0.233067 4.41888e-05 0)
(0.215869 7.08127e-05 0)
(0.201156 4.40751e-05 0)
(0.175577 0.000117416 0)
(0.162916 1.43579e-05 0)
(1.21516 7.73989e-05 0)
(1.21275 3.7308e-05 0)
(1.20981 3.68944e-05 0)
(1.20649 4.69299e-05 0)
(1.20227 5.48578e-05 0)
(1.19754 6.13859e-05 0)
(1.19233 6.72142e-05 0)
(1.18669 7.27353e-05 0)
(1.18065 7.81594e-05 0)
(1.17423 8.36322e-05 0)
(1.16742 8.92725e-05 0)
(1.1602 9.51617e-05 0)
(1.15258 0.000101382 0)
(1.14452 0.000108011 0)
(1.13601 0.000115107 0)
(1.12701 0.000122725 0)
(1.1175 0.00013093 0)
(1.10743 0.000139795 0)
(1.09678 0.000149411 0)
(1.08548 0.000159874 0)
(1.07349 0.000171312 0)
(1.06076 0.000183845 0)
(1.0472 0.000197656 0)
(1.03276 0.00021288 0)
(1.01732 0.000229859 0)
(1.00079 0.00024866 0)
(0.983039 0.000270016 0)
(0.963948 0.00029394 0)
(0.943243 0.00032163 0)
(0.920914 0.000351434 0)
(0.896472 0.000387448 0)
(0.870155 0.000425289 0)
(0.840704 0.000476032 0)
(0.809339 0.000523587 0)
(0.772607 0.000601419 0)
(0.735104 0.00065619 0)
(0.686607 0.000789093 0)
(0.643184 0.000834118 0)
(0.572151 0.00108421 0)
(0.531036 0.00108371 0)
(2.0472 0.000179388 0)
(2.04396 9.46519e-05 0)
(2.03967 0.000100242 0)
(2.03451 0.000128194 0)
(2.02798 0.000151337 0)
(2.02058 0.000170238 0)
(2.01239 0.000187151 0)
(2.0035 0.000203137 0)
(1.99395 0.000218799 0)
(1.98377 0.000234566 0)
(1.97294 0.000250776 0)
(1.96147 0.000267669 0)
(1.94932 0.000285479 0)
(1.93647 0.000304424 0)
(1.92288 0.000324668 0)
(1.9085 0.000346371 0)
(1.89328 0.000369713 0)
(1.87718 0.000394904 0)
(1.86012 0.000422194 0)
(1.84204 0.000451863 0)
(1.82284 0.000484259 0)
(1.80244 0.00051974 0)
(1.78073 0.000558783 0)
(1.75758 0.000601844 0)
(1.73284 0.000649742 0)
(1.70636 0.000702917 0)
(1.67792 0.00076308 0)
(1.64732 0.000830989 0)
(1.61415 0.000908576 0)
(1.57835 0.000993768 0)
(1.53922 0.00109363 0)
(1.49699 0.00120366 0)
(1.44989 0.0013412 0)
(1.39945 0.00148621 0)
(1.34084 0.00168794 0)
(1.28015 0.00187708 0)
(1.20322 0.00219427 0)
(1.13173 0.00243259 0)
(1.02053 0.00295253 0)
(0.947938 0.00333001 0)
(2.88556 0.000286221 0)
(2.88224 0.0001693 0)
(2.87696 0.000191388 0)
(2.87028 0.000246744 0)
(2.86187 0.000293058 0)
(2.85224 0.000331115 0)
(2.84153 0.000365206 0)
(2.82986 0.000397396 0)
(2.81729 0.000428869 0)
(2.80385 0.000460498 0)
(2.78953 0.000492956 0)
(2.77433 0.000526732 0)
(2.75821 0.000562289 0)
(2.74114 0.000600054 0)
(2.72307 0.000640358 0)
(2.70394 0.000683515 0)
(2.68368 0.000729879 0)
(2.66222 0.000779868 0)
(2.63948 0.000833975 0)
(2.61536 0.000892756 0)
(2.58975 0.000956884 0)
(2.56252 0.00102708 0)
(2.53353 0.00110426 0)
(2.50263 0.00118939 0)
(2.46959 0.00128393 0)
(2.43423 0.00138901 0)
(2.39625 0.00150771 0)
(2.35537 0.00164214 0)
(2.31107 0.00179479 0)
(2.26322 0.00196392 0)
(2.21095 0.00215944 0)
(2.15444 0.00237949 0)
(2.09158 0.00264601 0)
(2.02393 0.00294203 0)
(1.94585 0.00332478 0)
(1.86395 0.00372925 0)
(1.76197 0.00430578 0)
(1.66394 0.0048752 0)
(1.51828 0.00574811 0)
(1.41267 0.00682851 0)
(3.6942 0.000358923 0)
(3.69128 0.000251747 0)
(3.68528 0.000305424 0)
(3.67747 0.000396395 0)
(3.66766 0.000472703 0)
(3.65637 0.000536247 0)
(3.64376 0.000593322 0)
(3.62995 0.000647176 0)
(3.61503 0.000699738 0)
(3.59904 0.000752483 0)
(3.58197 0.000806525 0)
(3.56382 0.000862684 0)
(3.54455 0.000921727 0)
(3.52412 0.000984355 0)
(3.50247 0.00105112 0)
(3.47952 0.00112253 0)
(3.45521 0.00119919 0)
(3.42944 0.00128177 0)
(3.40212 0.0013711 0)
(3.37313 0.00146809 0)
(3.34234 0.00157383 0)
(3.3096 0.00168954 0)
(3.27472 0.00181669 0)
(3.23753 0.00195691 0)
(3.19776 0.00211253 0)
(3.15519 0.00228557 0)
(3.10946 0.00248096 0)
(3.06021 0.00270267 0)
(3.00683 0.00295357 0)
(2.94914 0.00323289 0)
(2.88615 0.00355361 0)
(2.81794 0.0039185 0)
(2.74219 0.0043536 0)
(2.66031 0.00484998 0)
(2.56631 0.00546869 0)
(2.46661 0.00616241 0)
(2.34426 0.00707459 0)
(2.2232 0.00809748 0)
(2.05007 0.009428 0)
(1.9132 0.0114872 0)
(4.42516 0.000390125 0)
(4.42242 0.000337168 0)
(4.4159 0.000436621 0)
(4.40734 0.000568591 0)
(4.39666 0.000679792 0)
(4.3843 0.000773961 0)
(4.37042 0.000858932 0)
(4.35518 0.000939063 0)
(4.33865 0.00101716 0)
(4.3209 0.00109543 0)
(4.30192 0.0011755 0)
(4.2817 0.0012586 0)
(4.26021 0.00134586 0)
(4.23739 0.00143831 0)
(4.2132 0.00153675 0)
(4.18754 0.00164197 0)
(4.16034 0.00175482 0)
(4.13151 0.00187632 0)
(4.10092 0.00200767 0)
(4.06845 0.00215023 0)
(4.03395 0.00230558 0)
(3.99726 0.00247554 0)
(3.95817 0.00266222 0)
(3.91648 0.0028681 0)
(3.8719 0.00309648 0)
(3.82416 0.00335052 0)
(3.77288 0.00363747 0)
(3.71762 0.00396346 0)
(3.65775 0.00433157 0)
(3.59301 0.00474262 0)
(3.52235 0.00521295 0)
(3.44573 0.00575148 0)
(3.36077 0.00638834 0)
(3.26861 0.00712621 0)
(3.16323 0.00802813 0)
(3.05049 0.00907293 0)
(2.91367 0.0103897 0)
(2.77526 0.0119679 0)
(2.58297 0.0138648 0)
(2.42076 0.0171206 0)
(5.05351 0.000404814 0)
(5.05058 0.000427444 0)
(5.04372 0.00057993 0)
(5.03474 0.000755618 0)
(5.02357 0.000904949 0)
(5.01059 0.00103356 0)
(4.99595 0.00115025 0)
(4.97982 0.00126027 0)
(4.96228 0.0013674 0)
(4.94338 0.00147464 0)
(4.92315 0.0015842 0)
(4.90156 0.00169774 0)
(4.87859 0.00181682 0)
(4.85418 0.00194281 0)
(4.82828 0.00207683 0)
(4.8008 0.00221995 0)
(4.77165 0.00237335 0)
(4.74074 0.00253841 0)
(4.70794 0.00271676 0)
(4.67312 0.00291024 0)
(4.63613 0.00312102 0)
(4.59677 0.00335153 0)
(4.55485 0.00360466 0)
(4.51013 0.00388381 0)
(4.46233 0.00419335 0)
(4.41114 0.00453773 0)
(4.35616 0.00492704 0)
(4.2969 0.00536963 0)
(4.23273 0.00586844 0)
(4.16334 0.00642652 0)
(4.08765 0.00706389 0)
(4.00551 0.00779667 0)
(3.91456 0.00865902 0)
(3.81569 0.00966817 0)
(3.70301 0.0108872 0)
(3.58177 0.0123284 0)
(3.43587 0.0140998 0)
(3.28596 0.0163097 0)
(3.0821 0.0188566 0)
(2.90219 0.023464 0)
(5.58427 0.000429065 0)
(5.58105 0.000524328 0)
(5.57404 0.000731355 0)
(5.56486 0.000952742 0)
(5.55344 0.00114277 0)
(5.54011 0.00130858 0)
(5.52504 0.00145966 0)
(5.50838 0.00160242 0)
(5.49021 0.00174146 0)
(5.4706 0.00188054 0)
(5.44954 0.00202242 0)
(5.42705 0.00216926 0)
(5.40309 0.00232306 0)
(5.3776 0.00248559 0)
(5.35053 0.0026583 0)
(5.32179 0.00284256 0)
(5.29131 0.00303991 0)
(5.25897 0.00325215 0)
(5.22465 0.00348137 0)
(5.18822 0.00372993 0)
(5.1495 0.00400061 0)
(5.10832 0.00429655 0)
(5.06446 0.00462144 0)
(5.01768 0.00497967 0)
(4.96768 0.0053768 0)
(4.91416 0.00581866 0)
(4.85668 0.00631854 0)
(4.79474 0.00688662 0)
(4.72772 0.00752552 0)
(4.65527 0.00824144 0)
(4.57631 0.00905804 0)
(4.49061 0.00999956 0)
(4.39584 0.0111037 0)
(4.2927 0.0124051 0)
(4.17549 0.0139641 0)
(4.04892 0.0158326 0)
(3.89765 0.0180909 0)
(3.74058 0.0209862 0)
(3.5304 0.0242352 0)
(3.33914 0.0302915 0)
(6.03641 0.000452824 0)
(6.03305 0.000625867 0)
(6.02609 0.000888482 0)
(6.01687 0.00115732 0)
(6.00537 0.00139046 0)
(5.99188 0.00159622 0)
(5.97658 0.00178459 0)
(5.9596 0.00196294 0)
(5.94103 0.00213676 0)
(5.92092 0.00231049 0)
(5.89929 0.0024875 0)
(5.87614 0.00267041 0)
(5.85143 0.00286172 0)
(5.82513 0.00306361 0)
(5.79716 0.00327788 0)
(5.76747 0.00350624 0)
(5.73594 0.00375061 0)
(5.70249 0.00401323 0)
(5.66699 0.00429667 0)
(5.62929 0.00460388 0)
(5.58923 0.00493825 0)
(5.54663 0.00530368 0)
(5.50126 0.00570468 0)
(5.45288 0.00614671 0)
(5.40119 0.00663652 0)
(5.34587 0.0071815 0)
(5.28648 0.00779661 0)
(5.22264 0.00849484 0)
(5.15367 0.0092805 0)
(5.07916 0.0101629 0)
(4.99802 0.0111685 0)
(4.90997 0.0123305 0)
(4.81273 0.0136895 0)
(4.70685 0.0152995 0)
(4.58682 0.0172147 0)
(4.45694 0.0195334 0)
(4.30257 0.0223006 0)
(4.14113 0.02592 0)
(3.92782 0.0299042 0)
(3.72953 0.0374675 0)
(6.427 0.000492582 0)
(6.42368 0.000730236 0)
(6.41686 0.00104872 0)
(6.40775 0.00136718 0)
(6.39631 0.00164584 0)
(6.38283 0.00189399 0)
(6.36747 0.00212214 0)
(6.35034 0.00233879 0)
(6.33154 0.00255015 0)
(6.31112 0.0027613 0)
(6.28909 0.00297614 0)
(6.26546 0.00319783 0)
(6.24021 0.00342937 0)
(6.21329 0.00367336 0)
(6.18465 0.00393193 0)
(6.1542 0.00420719 0)
(6.12186 0.00450146 0)
(6.08754 0.00481745 0)
(6.0511 0.00515825 0)
(6.0124 0.00552738 0)
(5.97128 0.00592892 0)
(5.92755 0.00636752 0)
(5.88099 0.00684857 0)
(5.83135 0.00737865 0)
(5.77832 0.00796571 0)
(5.72159 0.00861881 0)
(5.66072 0.00935445 0)
(5.59539 0.0101881 0)
(5.52493 0.0111261 0)
(5.44886 0.0121817 0)
(5.36611 0.0133841 0)
(5.27633 0.0147753 0)
(5.17731 0.0163982 0)
(5.06951 0.0183265 0)
(4.94774 0.0206088 0)
(4.81584 0.0233958 0)
(4.65978 0.0266885 0)
(4.4958 0.0310633 0)
(4.28125 0.0358048 0)
(4.07881 0.0449101 0)
(6.76786 0.000537409 0)
(6.76461 0.000834408 0)
(6.758 0.00120962 0)
(6.74908 0.0015793 0)
(6.73783 0.00190544 0)
(6.72449 0.00219826 0)
(6.7092 0.00246876 0)
(6.69209 0.00272634 0)
(6.67323 0.00297793 0)
(6.65268 0.00322917 0)
(6.63045 0.00348451 0)
(6.60656 0.00374764 0)
(6.58098 0.0040221 0)
(6.55366 0.00431088 0)
(6.52456 0.00461647 0)
(6.4936 0.00494136 0)
(6.46071 0.00528835 0)
(6.42577 0.00566063 0)
(6.38867 0.00606184 0)
(6.34927 0.00649612 0)
(6.30739 0.00696823 0)
(6.26286 0.00748362 0)
(6.21545 0.0080486 0)
(6.16491 0.00867091 0)
(6.11094 0.00935976 0)
(6.05322 0.0101259 0)
(5.9913 0.0109864 0)
(5.92487 0.0119591 0)
(5.85327 0.0130542 0)
(5.77603 0.0142887 0)
(5.69207 0.0156945 0)
(5.60101 0.0173225 0)
(5.50072 0.0192176 0)
(5.39156 0.0214735 0)
(5.26868 0.0241323 0)
(5.13545 0.0273995 0)
(4.97855 0.0312295 0)
(4.81307 0.0363795 0)
(4.59852 0.0418899 0)
(4.39386 0.0525567 0)
(7.06828 0.000582016 0)
(7.06512 0.000937641 0)
(7.05873 0.00136992 0)
(7.05007 0.00179182 0)
(7.03908 0.00216706 0)
(7.02597 0.00250655 0)
(7.01088 0.00282171 0)
(6.99391 0.00312264 0)
(6.97513 0.00341689 0)
(6.9546 0.00371071 0)
(6.93233 0.00400903 0)
(6.90834 0.00431613 0)
(6.8826 0.00463606 0)
(6.85508 0.00497215 0)
(6.82572 0.00532723 0)
(6.79446 0.00570424 0)
(6.76121 0.00610648 0)
(6.72589 0.00653765 0)
(6.68836 0.00700197 0)
(6.64849 0.0075042 0)
(6.60612 0.0080498 0)
(6.56105 0.00864506 0)
(6.51308 0.00929723 0)
(6.46195 0.0100153 0)
(6.40735 0.0108096 0)
(6.34898 0.0116929 0)
(6.28639 0.0126828 0)
(6.21924 0.0137996 0)
(6.14689 0.0150569 0)
(6.06889 0.0164762 0)
(5.98417 0.0180918 0)
(5.89234 0.0199641 0)
(5.79131 0.0221393 0)
(5.68135 0.0247301 0)
(5.55782 0.0277724 0)
(5.42379 0.0315291 0)
(5.2667 0.0359072 0)
(5.10039 0.0418445 0)
(4.88682 0.0481413 0)
(4.68077 0.060359 0)
(7.33565 0.000626323 0)
(7.33256 0.00103988 0)
(7.32641 0.00152885 0)
(7.31804 0.00200351 0)
(7.30736 0.00242914 0)
(7.29455 0.00281698 0)
(7.27973 0.00317879 0)
(7.26299 0.00352523 0)
(7.2444 0.00386442 0)
(7.22401 0.00420314 0)
(7.20184 0.00454678 0)
(7.17789 0.00490027 0)
(7.15214 0.00526813 0)
(7.12455 0.00565389 0)
(7.09509 0.00606079 0)
(7.06369 0.00649227 0)
(7.03028 0.00695213 0)
(6.99474 0.00744463 0)
(6.95698 0.00797455 0)
(6.91684 0.0085473 0)
(6.87418 0.00916908 0)
(6.8288 0.00984698 0)
(6.78049 0.0105893 0)
(6.729 0.0114062 0)
(6.67403 0.0123094 0)
(6.61527 0.0133131 0)
(6.5523 0.0144364 0)
(6.48474 0.015702 0)
(6.41199 0.0171263 0)
(6.33357 0.018735 0)
(6.24847 0.0205657 0)
(6.15625 0.0226881 0)
(6.05492 0.02515 0)
(5.94464 0.0280833 0)
(5.82096 0.0315179 0)
(5.68668 0.0357728 0)
(5.52995 0.0407091 0)
(5.36349 0.047443 0)
(5.15165 0.054541 0)
(4.94485 0.068288 0)
(7.57584 0.000671502 0)
(7.57283 0.00114118 0)
(7.56691 0.00168598 0)
(7.55883 0.00221354 0)
(7.54848 0.00269051 0)
(7.53601 0.00312806 0)
(7.52152 0.00353825 0)
(7.50508 0.00393213 0)
(7.48675 0.00431834 0)
(7.46659 0.0047041 0)
(7.4446 0.00509528 0)
(7.4208 0.00549752 0)
(7.39515 0.00591568 0)
(7.36762 0.00635334 0)
(7.33819 0.00681427 0)
(7.30679 0.00730245 0)
(7.27334 0.0078222 0)
(7.23775 0.00837834 0)
(7.1999 0.00897623 0)
(7.15966 0.00962193 0)
(7.11687 0.0103224 0)
(7.07135 0.0110855 0)
(7.02289 0.0119207 0)
(6.97124 0.0128394 0)
(6.9161 0.0138545 0)
(6.85717 0.0149818 0)
(6.79405 0.0162421 0)
(6.72633 0.0176604 0)
(6.65343 0.0192557 0)
(6.57488 0.0210581 0)
(6.48969 0.0231087 0)
(6.39741 0.0254862 0)
(6.2961 0.0282406 0)
(6.18586 0.0315228 0)
(6.06242 0.035357 0)
(5.92836 0.0401166 0)
(5.77241 0.0456194 0)
(5.6064 0.0531547 0)
(5.39676 0.0610697 0)
(5.19013 0.0763268 0)
(7.79367 0.000717753 0)
(7.79072 0.00124168 0)
(7.785 0.00184125 0)
(7.77721 0.00242162 0)
(7.76718 0.00295058 0)
(7.75505 0.00343896 0)
(7.74089 0.00389897 0)
(7.72478 0.00434201 0)
(7.70676 0.0047771 0)
(7.68687 0.0052119 0)
(7.66514 0.0056527 0)
(7.64155 0.00610586 0)
(7.61608 0.00657643 0)
(7.58871 0.00706806 0)
(7.5594 0.00758511 0)
(7.5281 0.00813213 0)
(7.49474 0.00871396 0)
(7.4592 0.00933596 0)
(7.4214 0.0100041 0)
(7.38118 0.0107251 0)
(7.3384 0.0115066 0)
(7.29289 0.0123574 0)
(7.24442 0.0132882 0)
(7.19276 0.0143115 0)
(7.13762 0.0154412 0)
(7.0787 0.0166949 0)
(7.01561 0.0180953 0)
(6.94794 0.0196699 0)
(6.8751 0.02144 0)
(6.79664 0.0234402 0)
(6.71159 0.0257149 0)
(6.61948 0.0283522 0)
(6.51844 0.0314044 0)
(6.40853 0.0350412 0)
(6.28563 0.0392812 0)
(6.15212 0.0445507 0)
(5.99728 0.050627 0)
(5.83219 0.0589661 0)
(5.62506 0.0677115 0)
(5.41941 0.0844552 0)
(7.99333 0.000761966 0)
(7.99044 0.00134187 0)
(7.98489 0.00199576 0)
(7.97731 0.00262888 0)
(7.96754 0.00321038 0)
(7.9557 0.00375048 0)
(7.94184 0.00426152 0)
(7.92602 0.00475512 0)
(7.90828 0.00524064 0)
(7.88866 0.00572614 0)
(7.86717 0.00621828 0)
(7.84381 0.00672388 0)
(7.81857 0.00724843 0)
(7.79142 0.0077959 0)
(7.76232 0.00837108 0)
(7.7312 0.008979 0)
(7.69799 0.00962501 0)
(7.66261 0.010315 0)
(7.62493 0.0110556 0)
(7.58484 0.0118541 0)
(7.54217 0.012719 0)
(7.49677 0.01366 0)
(7.44842 0.0146888 0)
(7.39687 0.0158192 0)
(7.34186 0.017066 0)
(7.28309 0.0184489 0)
(7.22016 0.0199921 0)
(7.15269 0.0217263 0)
(7.08009 0.0236748 0)
(7.0019 0.0258767 0)
(6.91717 0.0283797 0)
(6.82543 0.0312815 0)
(6.72485 0.034636 0)
(6.61548 0.0386325 0)
(6.49333 0.0432836 0)
(6.36064 0.0490679 0)
(6.20714 0.0557234 0)
(6.04331 0.0648681 0)
(5.83889 0.0744536 0)
(5.63484 0.0926614 0)
(8.17802 0.000807525 0)
(8.1752 0.00144201 0)
(8.16977 0.00214995 0)
(8.16237 0.00283586 0)
(8.15283 0.00347039 0)
(8.14123 0.00406305 0)
(8.12763 0.00462619 0)
(8.11207 0.00517164 0)
(8.0946 0.00570904 0)
(8.07523 0.0062468 0)
(8.05398 0.00679194 0)
(8.03086 0.00735166 0)
(8.00586 0.00793183 0)
(7.97894 0.00853682 0)
(7.95005 0.00917191 0)
(7.91914 0.00984257 0)
(7.88613 0.0105546 0)
(7.85092 0.0113146 0)
(7.81343 0.0121296 0)
(7.7735 0.0130077 0)
(7.73101 0.0139581 0)
(7.68577 0.0149913 0)
(7.6376 0.0161202 0)
(7.58625 0.0173598 0)
(7.53147 0.0187262 0)
(7.47294 0.0202407 0)
(7.4103 0.0219297 0)
(7.34315 0.0238265 0)
(7.27091 0.0259565 0)
(7.19313 0.0283638 0)
(7.10886 0.0310995 0)
(7.01762 0.0342701 0)
(6.91765 0.0379315 0)
(6.80897 0.0422922 0)
(6.68774 0.0473592 0)
(6.55607 0.0536627 0)
(6.40408 0.0609022 0)
(6.24176 0.0708538 0)
(6.04017 0.0812861 0)
(5.83818 0.100937 0)
(8.34994 0.000853222 0)
(8.34719 0.00154233 0)
(8.34189 0.00230454 0)
(8.33466 0.00304345 0)
(8.32532 0.00373151 0)
(8.31397 0.00437748 0)
(8.30062 0.00499375 0)
(8.28533 0.00559223 0)
(8.26812 0.00618286 0)
(8.24903 0.00677433 0)
(8.22804 0.00737401 0)
(8.20518 0.00798921 0)
(8.18042 0.00862631 0)
(8.15374 0.00929046 0)
(8.12508 0.0099872 0)
(8.09439 0.0107224 0)
(8.06159 0.0115024 0)
(8.0266 0.0123342 0)
(7.98931 0.0132256 0)
(7.9496 0.0141852 0)
(7.90731 0.0152232 0)
(7.86229 0.0163508 0)
(7.81434 0.017582 0)
(7.76323 0.018933 0)
(7.70871 0.0204212 0)
(7.65048 0.0220697 0)
(7.58816 0.0239066 0)
(7.52138 0.0259681 0)
(7.44959 0.0282825 0)
(7.37233 0.0308988 0)
(7.28861 0.0338714 0)
(7.19799 0.0373152 0)
(7.09874 0.0412878 0)
(6.99088 0.046017 0)
(6.87067 0.0515043 0)
(6.74016 0.058331 0)
(6.5898 0.0661586 0)
(6.42917 0.0769179 0)
(6.23051 0.0882018 0)
(6.03088 0.109276 0)
(8.51087 0.000898759 0)
(8.50818 0.00164285 0)
(8.503 0.00245956 0)
(8.49593 0.00325164 0)
(8.48679 0.00399367 0)
(8.47567 0.00469362 0)
(8.46258 0.00536388 0)
(8.44755 0.00601645 0)
(8.43062 0.00666149 0)
(8.41179 0.00730797 0)
(8.39109 0.0079636 0)
(8.36849 0.00863585 0)
(8.344 0.00933155 0)
(8.31758 0.0100565 0)
(8.28918 0.0108166 0)
(8.25874 0.0116181 0)
(8.22619 0.0124678 0)
(8.19145 0.0133734 0)
(8.15441 0.014343 0)
(8.11495 0.0153863 0)
(8.07292 0.0165139 0)
(8.02815 0.0177382 0)
(7.98047 0.0190738 0)
(7.92964 0.0205381 0)
(7.87542 0.0221504 0)
(7.81751 0.0239353 0)
(7.75553 0.0259227 0)
(7.68915 0.0281514 0)
(7.61782 0.0306517 0)
(7.54113 0.0334799 0)
(7.45804 0.0366935 0)
(7.3681 0.0404148 0)
(7.26965 0.0447027 0)
(7.16269 0.0498044 0)
(7.04361 0.0557161 0)
(6.91436 0.0630695 0)
(6.76571 0.0714889 0)
(6.60691 0.0830567 0)
(6.41122 0.0951956 0)
(6.21417 0.117673 0)
(8.66226 0.000944368 0)
(8.65962 0.00174371 0)
(8.65454 0.00261508 0)
(8.64763 0.00346056 0)
(8.63868 0.00425697 0)
(8.62778 0.00501152 0)
(8.61493 0.00573659 0)
(8.60016 0.00644423 0)
(8.5835 0.0071448 0)
(8.56496 0.00784753 0)
(8.54454 0.00856044 0)
(8.52222 0.00929121 0)
(8.49801 0.0100471 0)
(8.47187 0.0108344 0)
(8.44374 0.0116594 0)
(8.41358 0.0125288 0)
(8.38131 0.01345 0)
(8.34685 0.0144311 0)
(8.31009 0.015481 0)
(8.27091 0.0166098 0)
(8.22917 0.0178291 0)
(8.1847 0.0191521 0)
(8.13733 0.0205943 0)
(8.08683 0.0221745 0)
(8.03294 0.0239133 0)
(7.9754 0.0258373 0)
(7.91382 0.0279778 0)
(7.84787 0.030376 0)
(7.77701 0.0330645 0)
(7.70089 0.0361068 0)
(7.61847 0.0395648 0)
(7.52927 0.0435675 0)
(7.43167 0.0481746 0)
(7.32567 0.0536527 0)
(7.20778 0.0599926 0)
(7.07987 0.0678761 0)
(6.93299 0.0768907 0)
(6.7761 0.0892671 0)
(6.58341 0.102264 0)
(6.38907 0.126124 0)
(8.80529 0.000990279 0)
(8.80269 0.00184505 0)
(8.79772 0.00277128 0)
(8.79095 0.00367039 0)
(8.78218 0.0045216 0)
(8.77149 0.00533133 0)
(8.75887 0.00611198 0)
(8.74436 0.0068756 0)
(8.72797 0.00763276 0)
(8.7097 0.00839291 0)
(8.68956 0.00916437 0)
(8.66754 0.00995507 0)
(8.64362 0.0107726 0)
(8.61776 0.0116237 0)
(8.58993 0.0125152 0)
(8.56007 0.0134542 0)
(8.52809 0.0144486 0)
(8.49393 0.0155069 0)
(8.45747 0.0166388 0)
(8.4186 0.0178551 0)
(8.37718 0.019168 0)
(8.33305 0.0205918 0)
(8.28601 0.0221429 0)
(8.23587 0.0238412 0)
(8.18237 0.025709 0)
(8.12523 0.0277745 0)
(8.06409 0.0300708 0)
(7.99861 0.0326416 0)
(7.92828 0.035521 0)
(7.85272 0.0387796 0)
(7.77098 0.042485 0)
(7.68254 0.0467725 0)
(7.58584 0.0517025 0)
(7.48085 0.0575605 0)
(7.36418 0.0643322 0)
(7.23766 0.0727489 0)
(7.0926 0.0823619 0)
(6.93768 0.095547 0)
(6.74799 0.109403 0)
(6.55646 0.134626 0)
(8.94096 0.00103677 0)
(8.9384 0.00194708 0)
(8.93352 0.00292834 0)
(8.92688 0.00388134 0)
(8.91828 0.00478775 0)
(8.90778 0.00565323 0)
(8.89539 0.00649017 0)
(8.88113 0.00731065 0)
(8.865 0.00812539 0)
(8.84701 0.00894407 0)
(8.82715 0.0097753 0)
(8.80542 0.0106273 0)
(8.78179 0.0115078 0)
(8.75624 0.0124242 0)
(8.72871 0.0133838 0)
(8.69915 0.014394 0)
(8.66749 0.0154631 0)
(8.63364 0.0166005 0)
(8.59751 0.0178162 0)
(8.55897 0.0191217 0)
(8.51789 0.0205303 0)
(8.47411 0.0220569 0)
(8.42745 0.023719 0)
(8.3777 0.0255378 0)
(8.32461 0.0275369 0)
(8.2679 0.0297464 0)
(8.20724 0.0322011 0)
(8.14227 0.0349473 0)
(8.07249 0.0380208 0)
(7.99754 0.0414988 0)
(7.91647 0.0454541 0)
(7.82882 0.0500294 0)
(7.73303 0.0552857 0)
(7.6291 0.0615271 0)
(7.51369 0.068734 0)
(7.38859 0.077687 0)
(7.24537 0.0879012 0)
(7.09245 0.101895 0)
(6.90576 0.116613 0)
(6.71708 0.143177 0)
(9.0701 0.00108417 0)
(9.06757 0.00204998 0)
(9.06278 0.00308647 0)
(9.05625 0.00409364 0)
(9.04781 0.00505567 0)
(9.0375 0.00597744 0)
(9.02533 0.00687136 0)
(9.0113 0.00774951 0)
(8.99542 0.00862278 0)
(8.9777 0.00950106 0)
(8.95813 0.0103932 0)
(8.93669 0.0113077 0)
(8.91336 0.0122527 0)
(8.88811 0.0132358 0)
(8.86089 0.0142648 0)
(8.83165 0.0153478 0)
(8.80031 0.0164934 0)
(8.76679 0.0177114 0)
(8.731 0.0190127 0)
(8.69281 0.0204094 0)
(8.65209 0.0219155 0)
(8.60869 0.023547 0)
(8.56242 0.0253223 0)
(8.51307 0.0272637 0)
(8.46042 0.0293965 0)
(8.40418 0.0317524 0)
(8.34401 0.0343682 0)
(8.27958 0.0372926 0)
(8.21039 0.0405634 0)
(8.13607 0.044264 0)
(8.05571 0.0484722 0)
(7.96886 0.0533383 0)
(7.874 0.0589239 0)
(7.77113 0.0655519 0)
(7.657 0.0731975 0)
(7.53335 0.0826895 0)
(7.39198 0.0935079 0)
(7.24109 0.10831 0)
(7.05737 0.123891 0)
(6.87159 0.151775 0)
(9.19342 0.00113256 0)
(9.19092 0.00215393 0)
(9.1862 0.00324587 0)
(9.17979 0.00430752 0)
(9.17149 0.00532559 0)
(9.16136 0.00630418 0)
(9.14938 0.00725576 0)
(9.13558 0.00819237 0)
(9.11995 0.00912507 0)
(9.10249 0.010064 0)
(9.0832 0.0110182 0)
(9.06204 0.0119964 0)
(9.03901 0.0130071 0)
(9.01407 0.0140583 0)
(8.98716 0.0151583 0)
(8.95824 0.0163155 0)
(8.92724 0.0175391 0)
(8.89406 0.0188396 0)
(8.85862 0.0202282 0)
(8.82079 0.0217179 0)
(8.78045 0.0233235 0)
(8.73743 0.0250618 0)
(8.69157 0.0269523 0)
(8.64266 0.0290187 0)
(8.59046 0.0312875 0)
(8.5347 0.0337923 0)
(8.47505 0.0365717 0)
(8.41119 0.0396771 0)
(8.34261 0.0431481 0)
(8.26895 0.047075 0)
(8.1893 0.0515394 0)
(8.10327 0.0566991 0)
(8.00937 0.0626169 0)
(7.90758 0.0696347 0)
(7.79474 0.0777222 0)
(7.67255 0.087756 0)
(7.53303 0.0991813 0)
(7.38418 0.114791 0)
(7.20342 0.131236 0)
(7.02053 0.16042 0)
(9.31152 0.00118181 0)
(9.30904 0.00225908 0)
(9.30439 0.00340675 0)
(9.29808 0.00452323 0)
(9.28992 0.00559776 0)
(9.27995 0.00663372 0)
(9.26817 0.0076436 0)
(9.25459 0.00863945 0)
(9.23919 0.00963245 0)
(9.22199 0.0106329 0)
(9.20296 0.0116502 0)
(9.18209 0.0126933 0)
(9.15935 0.013771 0)
(9.13471 0.0148918 0)
(9.10813 0.0160641 0)
(9.07953 0.0172971 0)
(9.04886 0.0186003 0)
(9.01603 0.0199847 0)
(8.98095 0.0214624 0)
(8.94349 0.023047 0)
(8.90353 0.0247539 0)
(8.86092 0.026601 0)
(8.81548 0.028609 0)
(8.76701 0.0308025 0)
(8.71528 0.0332095 0)
(8.66002 0.0358657 0)
(8.60092 0.0388113 0)
(8.53763 0.0421003 0)
(8.46968 0.0457747 0)
(8.3967 0.0499314 0)
(8.3178 0.0546555 0)
(8.2326 0.0601116 0)
(8.13966 0.0663649 0)
(8.03896 0.0737755 0)
(7.92742 0.0823081 0)
(7.80669 0.0928864 0)
(7.66903 0.104921 0)
(7.52222 0.121338 0)
(7.34437 0.138649 0)
(7.16438 0.169111 0)
(9.42492 0.00123194 0)
(9.42247 0.00236558 0)
(9.41788 0.00356931 0)
(9.41166 0.00474099 0)
(9.40362 0.00587245 0)
(9.39381 0.00696631 0)
(9.38221 0.00803514 0)
(9.36883 0.00909097 0)
(9.35366 0.0101451 0)
(9.33671 0.0112081 0)
(9.31794 0.0122896 0)
(9.29735 0.0133988 0)
(9.2749 0.0145447 0)
(9.25057 0.0157362 0)
(9.22429 0.0169823 0)
(9.19603 0.0182925 0)
(9.16569 0.0196769 0)
(9.13321 0.0211469 0)
(9.09849 0.0227154 0)
(9.06141 0.0243965 0)
(9.02184 0.0262067 0)
(8.97964 0.0281647 0)
(8.93463 0.030292 0)
(8.88662 0.0326149 0)
(8.83537 0.0351626 0)
(8.78063 0.0379726 0)
(8.72207 0.0410869 0)
(8.65938 0.0445623 0)
(8.59208 0.048443 0)
(8.51979 0.052833 0)
(8.44165 0.05782 0)
(8.3573 0.0635758 0)
(8.26533 0.0701676 0)
(8.16573 0.0779742 0)
(8.05549 0.0869551 0)
(7.93623 0.0980805 0)
(7.80041 0.110728 0)
(7.65563 0.12795 0)
(7.48068 0.146128 0)
(7.30356 0.177847 0)
(9.53408 0.0012832 0)
(9.53164 0.0024736 0)
(9.52711 0.00373374 0)
(9.52097 0.00496105 0)
(9.51305 0.00614991 0)
(9.50338 0.00730223 0)
(9.49196 0.00843065 0)
(9.47877 0.0095472 0)
(9.46382 0.0106634 0)
(9.4471 0.0117898 0)
(9.42859 0.0129365 0)
(9.40827 0.0141128 0)
(9.38611 0.0153281 0)
(9.36207 0.0165917 0)
(9.33611 0.017913 0)
(9.30816 0.0193017 0)
(9.27817 0.0207688 0)
(9.24604 0.0223262 0)
(9.21168 0.023987 0)
(9.17498 0.0257666 0)
(9.13582 0.0276818 0)
(9.09403 0.0297526 0)
(9.04946 0.0320015 0)
(9.00191 0.0344559 0)
(8.95115 0.0371465 0)
(8.89693 0.0401127 0)
(8.83894 0.0433984 0)
(8.77684 0.0470628 0)
(8.7102 0.0511531 0)
(8.63862 0.0557796 0)
(8.56125 0.0610329 0)
(8.47776 0.0670917 0)
(8.38677 0.0740253 0)
(8.28828 0.082231 0)
(8.17934 0.0916635 0)
(8.06155 0.103339 0)
(7.92756 0.116601 0)
(7.7848 0.134628 0)
(7.6127 0.153674 0)
(7.43844 0.186628 0)
(9.63938 0.00133568 0)
(9.63695 0.00258327 0)
(9.63247 0.00390024 0)
(9.62641 0.00518363 0)
(9.6186 0.0064304 0)
(9.60907 0.00764176 0)
(9.5978 0.00883043 0)
(9.5848 0.0100084 0)
(9.57006 0.0111874 0)
(9.55357 0.0123782 0)
(9.5353 0.013591 0)
(9.51524 0.0148356 0)
(9.49336 0.0161215 0)
(9.46962 0.0174585 0)
(9.44396 0.0188562 0)
(9.41634 0.020325 0)
(9.38668 0.0218763 0)
(9.3549 0.0235225 0)
(9.32091 0.0252775 0)
(9.28459 0.0271572 0)
(9.24582 0.0291794 0)
(9.20446 0.0313649 0)
(9.16033 0.0337374 0)
(9.11325 0.0363255 0)
(9.06299 0.0391614 0)
(9.0093 0.0422862 0)
(8.95187 0.0457459 0)
(8.89039 0.049602 0)
(8.82441 0.053905 0)
(8.75353 0.0587714 0)
(8.67696 0.0642941 0)
(8.59434 0.0706591 0)
(8.50433 0.077938 0)
(8.40694 0.086546 0)
(8.2993 0.0964334 0)
(8.18298 0.108661 0)
(8.0508 0.122541 0)
(7.91006 0.141372 0)
(7.74077 0.161287 0)
(7.56935 0.195455 0)
(9.74117 0.00138955 0)
(9.73875 0.00269474 0)
(9.73432 0.00406898 0)
(9.72833 0.00540896 0)
(9.72062 0.00671418 0)
(9.71121 0.00798517 0)
(9.7001 0.00923476 0)
(9.68727 0.010475 0)
(9.67273 0.0117176 0)
(9.65645 0.0129737 0)
(9.63842 0.0142536 0)
(9.61862 0.0155675 0)
(9.59701 0.0169252 0)
(9.57355 0.0183367 0)
(9.5482 0.0198122 0)
(9.52089 0.0213625 0)
(9.49156 0.0229994 0)
(9.46013 0.024736 0)
(9.42651 0.0265868 0)
(9.39057 0.0285684 0)
(9.3522 0.0306995 0)
(9.31126 0.0330017 0)
(9.26758 0.0354998 0)
(9.22097 0.0382238 0)
(9.17121 0.0412073 0)
(9.11805 0.0444932 0)
(9.06119 0.0481293 0)
(9.00032 0.0521798 0)
(8.93502 0.0566988 0)
(8.86485 0.0618084 0)
(8.78907 0.0676036 0)
(8.70732 0.0742783 0)
(8.61831 0.0819057 0)
(8.52203 0.0909195 0)
(8.41568 0.101265 0)
(8.30081 0.114047 0)
(8.17044 0.128547 0)
(8.03169 0.148181 0)
(7.86518 0.168966 0)
(7.69657 0.204326 0)
(9.83974 0.00144489 0)
(9.83733 0.00280814 0)
(9.83294 0.00424015 0)
(9.82703 0.00563726 0)
(9.8194 0.00700151 0)
(9.81012 0.00833275 0)
(9.79915 0.00964393 0)
(9.78649 0.0109471 0)
(9.77213 0.0122542 0)
(9.75606 0.0135764 0)
(9.73826 0.0149245 0)
(9.7187 0.0163087 0)
(9.69735 0.0177393 0)
(9.67418 0.0192266 0)
(9.64912 0.0207813 0)
(9.62212 0.0224144 0)
(9.59313 0.0241385 0)
(9.56204 0.025967 0)
(9.52877 0.0279153 0)
(9.49322 0.0300005 0)
(9.45525 0.0322422 0)
(9.41473 0.0346631 0)
(9.37149 0.037289 0)
(9.32535 0.040151 0)
(9.27609 0.0432843 0)
(9.22347 0.0467337 0)
(9.16718 0.050549 0)
(9.10693 0.0547965 0)
(9.0423 0.0595347 0)
(8.97285 0.0648909 0)
(8.89786 0.0709618 0)
(8.81699 0.0779493 0)
(8.72897 0.0859289 0)
(8.63379 0.0953516 0)
(8.52874 0.106159 0)
(8.41532 0.119498 0)
(8.28673 0.134622 0)
(8.14995 0.155056 0)
(7.98618 0.176712 0)
(7.82035 0.213242 0)
(9.93538 0.00150157 0)
(9.93297 0.00292357 0)
(9.92862 0.0044139 0)
(9.92277 0.00586874 0)
(9.91523 0.00729263 0)
(9.90606 0.00868477 0)
(9.89522 0.0100583 0)
(9.88272 0.0114251 0)
(9.86854 0.0127975 0)
(9.85267 0.0141868 0)
(9.83509 0.015604 0)
(9.81576 0.0170596 0)
(9.79467 0.0185643 0)
(9.77176 0.0201286 0)
(9.747 0.0217636 0)
(9.72031 0.023481 0)
(9.69163 0.0252937 0)
(9.66088 0.0272157 0)
(9.62797 0.0292631 0)
(9.5928 0.0314537 0)
(9.55523 0.0338079 0)
(9.51513 0.0363494 0)
(9.47233 0.039105 0)
(9.42666 0.0421073 0)
(9.3779 0.0453928 0)
(9.32581 0.0490082 0)
(9.2701 0.0530051 0)
(9.21047 0.0574524 0)
(9.14651 0.0624129 0)
(9.07777 0.0680191 0)
(9.00358 0.0743688 0)
(8.92359 0.0816726 0)
(8.83655 0.0900078 0)
(8.74247 0.0998428 0)
(8.6387 0.111115 0)
(8.52672 0.125014 0)
(8.39991 0.140764 0)
(8.26508 0.161997 0)
(8.10402 0.184525 0)
(7.94093 0.222203 0)
(10.0283 0.00155976 0)
(10.0259 0.00304114 0)
(10.0216 0.0045904 0)
(10.0158 0.00610361 0)
(10.0083 0.00758779 0)
(9.99927 0.00904152 0)
(9.98856 0.010478 0)
(9.97621 0.0119094 0)
(9.9622 0.0133479 0)
(9.94651 0.0148052 0)
(9.92914 0.0162925 0)
(9.91005 0.0178206 0)
(9.8892 0.0194004 0)
(9.86656 0.0210429 0)
(9.84207 0.0227596 0)
(9.81568 0.0245626 0)
(9.78732 0.0264653 0)
(9.7569 0.0284824 0)
(9.72435 0.0306305 0)
(9.68954 0.0329282 0)
(9.65236 0.0353968 0)
(9.61268 0.0380608 0)
(9.57033 0.0409482 0)
(9.52512 0.044093 0)
(9.47686 0.047533 0)
(9.42531 0.0513168 0)
(9.37017 0.0554979 0)
(9.31115 0.0601478 0)
(9.24786 0.0653338 0)
(9.17984 0.0711934 0)
(9.10643 0.0778253 0)
(9.02731 0.0854486 0)
(8.94126 0.0941429 0)
(8.84828 0.104394 0)
(8.74578 0.116134 0)
(8.63523 0.130595 0)
(8.51017 0.146974 0)
(8.37727 0.169004 0)
(8.21888 0.192404 0)
(8.05851 0.231209 0)
(10.1187 0.00162 0)
(10.1163 0.00316101 0)
(10.1121 0.00476979 0)
(10.1063 0.00634208 0)
(10.0989 0.00788724 0)
(10.09 0.00940327 0)
(10.0794 0.0109036 0)
(10.0672 0.0124002 0)
(10.0533 0.0139057 0)
(10.0378 0.0154319 0)
(10.0206 0.0169903 0)
(10.0018 0.0185918 0)
(9.98115 0.0202479 0)
(9.95877 0.0219699 0)
(9.93455 0.0237695 0)
(9.90845 0.0256596 0)
(9.8804 0.0276537 0)
(9.85032 0.0297675 0)
(9.81811 0.0320179 0)
(9.78367 0.0344245 0)