/*--------------------------------*- C++ -*----------------------------------*\
| =========                 |                                                 |
| \\      /  F ield         | OpenFOAM: The Open Source CFD Toolbox           |
|  \\    /   O peration     | Version:  2006                                  |
|   \\  /    A nd           | Website:  www.openfoam.com                      |
|    \\/     M anipulation  |                                                 |
\*---------------------------------------------------------------------------*/
FoamFile
{
    version     2.0;
    format      ascii;
    class       volScalarField;
    location    "6000";
    object      yPlus;
}
// * * * * * * * * * * * * * * * * * * * * * * * * * * * * * * * * * * * * * //

dimensions      [0 0 0 0 0 0 0];


internalField   uniform 0;

boundaryField
{
    inlet
    {
        type            calculated;
        value           uniform 0;
    }
    outlet
    {
        type            calculated;
        value           uniform 0;
    }
    bottom
    {
        type            calculated;
        value           nonuniform List<scalar> 
412
(
0.617332
0.616596
0.615715
0.614787
0.613603
0.612286
0.610839
0.609277
0.607606
0.605827
0.603938
0.601936
0.599816
0.59757
0.59519
0.592666
0.589988
0.587142
0.584116
0.580893
0.577454
0.573778
0.569839
0.565611
0.561058
0.556144
0.550814
0.545027
0.538677
0.531749
0.52405
0.515652
0.506051
0.495691
0.483154
0.470236
0.452554
0.436859
0.40814
0.393149
0.32965
0.307476
0.363687
0.393557
0.431727
0.46952
0.50301
0.544947
0.575772
0.631622
0.66018
0.774534
0.785394
0.729066
0.758142
0.757055
0.76152
0.764602
0.766823
0.768617
0.769932
0.770904
0.771589
0.772037
0.772284
0.772354
0.772276
0.772066
0.77174
0.771312
0.770793
0.770191
0.769516
0.768774
0.76797
0.76711
0.766199
0.76524
0.764236
0.763191
0.762108
0.760986
0.75983
0.758641
0.757419
0.756167
0.754885
0.753574
0.752236
0.750871
0.749479
0.748061
0.746619
0.745152
0.74366
0.742141
0.740602
0.73904
0.737456
0.735849
0.73422
0.732568
0.730896
0.729202
0.727487
0.725751
0.723995
0.722217
0.720419
0.7186
0.716761
0.714901
0.713021
0.71112
0.709198
0.707256
0.705294
0.703311
0.701306
0.699281
0.697234
0.695166
0.693076
0.690965
0.688832
0.686676
0.684498
0.682297
0.680073
0.677826
0.675555
0.67326
0.67094
0.668597
0.666224
0.663817
0.661373
0.658897
0.656391
0.653855
0.651292
0.648699
0.646078
0.643428
0.640747
0.638036
0.635294
0.63252
0.629714
0.626875
0.624002
0.621094
0.618151
0.615173
0.612157
0.609104
0.606011
0.602879
0.599706
0.596492
0.59323
0.589915
0.586545
0.583124
0.579652
0.57613
0.572557
0.568933
0.565256
0.561528
0.557741
0.553897
0.549993
0.546023
0.541983
0.537871
0.533689
0.529438
0.525117
0.52072
0.516241
0.51168
0.507035
0.502302
0.497481
0.492567
0.487558
0.482451
0.477243
0.471932
0.466515
0.46099
0.455356
0.449609
0.443746
0.437767
0.431668
0.425446
0.419098
0.412622
0.406014
0.39927
0.392384
0.385353
0.378174
0.370842
0.363352
0.355696
0.34787
0.339869
0.331687
0.323317
0.31475
0.305976
0.296987
0.287773
0.278322
0.26862
0.258649
0.248388
0.237811
0.226889
0.215587
0.203857
0.191637
0.178843
0.16536
0.151021
0.135588
0.118667
0.0995532
0.0767829
0.0469023
0.0482234
0.0760067
0.0961908
0.112328
0.125865
0.137615
0.147873
0.157132
0.165225
0.172888
0.179222
0.185972
0.190467
0.197263
0.199058
0.207772
0.204461
0.219221
0.20697
0.210856
0.228212
0.226131
0.236813
0.237397
0.241734
0.242149
0.243403
0.243069
0.24286
0.241986
0.241084
0.239875
0.238569
0.237044
0.235358
0.23343
0.231257
0.228787
0.225979
0.222784
0.219156
0.215039
0.210355
0.205033
0.198965
0.192066
0.184143
0.175095
0.164505
0.152273
0.137328
0.119584
0.0952666
0.0617101
0.0511609
0.0924823
0.129739
0.152487
0.188051
0.209859
0.219528
0.236227
0.248585
0.261593
0.273548
0.285127
0.296179
0.306807
0.317023
0.326859
0.336338
0.34548
0.354297
0.362805
0.371017
0.378944
0.386595
0.393979
0.401107
0.407986
0.414623
0.421027
0.427205
0.433164
0.438909
0.44445
0.449792
0.45494
0.459903
0.464686
0.469293
0.473732
0.478008
0.482126
0.486092
0.489912
0.493591
0.497132
0.500542
0.503827
0.506989
0.510034
0.512967
0.515792
0.518512
0.521133
0.523659
0.526092
0.528438
0.5307
0.532881
0.534986
0.537017
0.538977
0.54087
0.542699
0.544467
0.546176
0.54783
0.549432
0.550982
0.552485
0.553942
0.555356
0.556729
0.558063
0.55936
0.560622
0.56185
0.563048
0.564216
0.565355
0.566469
0.567557
0.568622
0.569665
0.570687
0.571689
0.572673
0.57364
0.574591
0.575528
0.57645
0.577359
0.578257
0.579144
0.58002
0.580887
0.581746
0.582597
0.583441
0.58428
0.585113
0.585941
0.586765
0.587586
0.588404
0.58922
0.590032
0.590838
0.591637
0.592427
0.593215
0.593992
0.594776
0.595546
0.596346
0.597111
0.597958
0.598689
0.59964
0.600245
0.60146
0.601688
0.603625
0.602784
0.60661
0.603191
0.608726
)
;
    }
    top
    {
        type            calculated;
        value           uniform 0;
    }
    frontAndBack
    {
        type            empty;
    }
}


// ************************************************************************* //
