# y+ ()       
# Time        	patch         	min           	max           	average       
6000          	bottom	2.860743e-02	1.117603e+00	5.812529e-01
