/*--------------------------------*- C++ -*----------------------------------*    | =========                 |                                                 |
    | \      /  F ield         | OpenFOAM: The Open Source CFD Toolbox           |
    |  \    /   O peration     | Version:  v2006                                 |
    |   \  /    A nd           | Website:  www.openfoam.com                      |
    |    \/     M anipulation  |                                                 |
    \*---------------------------------------------------------------------------*/
    FoamFile
    {
        version     2.0;
        format      ascii;
        class       volScalarField;
        object      k;
    }
    // * * * * * * * * * * * * * * * * * * * * * * * * * * * * * * * * * * * * * //
    
    dimensions      [0 2 -2 0 0 0 0];
    
    internalField   uniform .16699;
    
boundaryField
{
    bottom
    {
        type            kLowReWallFunction;
        value           $internalField;

    }
    "(top|outlet)"
    {
        type            zeroGradient;
    }
    inlet
    {
        type            fixedValue;
		value 			nonuniform List<scalar> 
    
    175 (
        0.003958032090272496 0.006326925226502312 0.02973255808418568 0.09712680855681595 0.2201865114083399 0.3787769869525308 0.5375196333595593 0.6749045691056911 0.7867568840807763 0.876541804615788 0.9483507987804878 1.0059568336502525 1.0525379758704347 1.0906252973575503 1.1221786716496198 1.1486925806451613 1.171264280094414 1.1906414023591088 1.2073998032786886 1.2219791147540984 1.2347379344262295 1.2459467758846656 1.2558415409836066 1.264605737704918 1.2723870098360655 1.2793072459016395 1.2854589770491802 1.2909564721311475 1.2958447016393444 1.300209586885246 1.3040817901639343 1.3075170754098362 1.310555718032787 1.313226544262295 1.3155617704918032 1.317584281967213 1.3193108256880735 1.3207730144167757 1.321987980327869 1.322948393442623 1.323675586885246 1.3241960327868854 1.3245094032786886 1.32462 1.3245388196721313 1.3242686557377048 1.3238195737704919 1.3231868459016394 1.322386518032787 1.321415737704918 1.3202751803278687 1.3189780327868852 1.317506006557377 1.315873180327869 1.31408374836173 1.3121227672131148 1.3100037704918033 1.3077233836065574 1.305272773770492 1.3026637311475409 1.2998797509829618 1.2969285836065574 1.293808518032787 1.290506236065574 1.287030006557377 1.2833777049180328 1.279538537704918 1.2755070491803278 1.271280819672131 1.266864737876802 1.2622359016393443 1.257405704918033 1.252366137704918 1.2471087581699347 1.2416217647058823 1.2359163157894735 1.2299596052631578 1.2237721710526317 1.2173175163398693 1.2106139215686273 1.2036425 1.196397908496732 1.1888718954248365 1.1810398039215686 1.1729010526315788 1.1644705921052632 1.1557005263157893 1.146603725490196 1.1371605263157896 1.12733 1.1171014379084967 1.1064190131578948 1.0952529411764707 1.083553947368421 1.071285 1.0584270588235294 1.044940588235294 1.0307814379084967 1.015934640522876 1.0003519607843137 0.9840152941176471 0.9668703790849674 0.9488768104575164 0.9300005526315789 0.9101748157894738 0.8893450392156862 0.8674340526315789 0.8443489999999999 0.8199868421052632 0.7942117450980392 0.766871091503268 0.7377964117647059 0.7068389673202615 0.6739392222222221 0.6395747500000001 0.604423197368421 0.5688888039215687 0.5334056249999999 0.49843154901960796 0.464408202614379 0.43160513725490185 0.3999540855263159 0.36910423026315786 0.3389626578947369 0.30982331372549027 0.28207196078431374 0.25613237254901966 0.23243505882352944 0.2113461764705882 0.19312097368421055 0.17783439473684212 0.16538672549019606 0.15551444736842107 0.14785691503267973 0.14202037254901959 0.13763080392156865 0.13435577124183007 0.13192046052631579 0.1301102105263158 0.1287827105263158 0.127853625 0.12722836842105265 0.12681811842105262 0.1265623137254902 0.12641736842105264 0.126355 0.126355 0.1264 0.12647833986928106 0.12658279738562092 0.12670464052287583 0.1268389411764706 0.1269807960526316 0.12712729411764706 0.12727453289473684 0.12742059477124185 0.12756259210526316 0.12769861842105265 0.12782875 0.1279511875 0.12806493333333335 0.128169 0.128263875 0.12835 0.1284255625 0.1284918 0.128549 0.128598 0.128638 0.128671 0.128697 0.128717 0.128732 0.128742 0.128747 );
    }
     
    }
    // ************************************************************************* //