/*--------------------------------*- C++ -*----------------------------------*    | =========                 |                                                 |
    | \      /  F ield         | OpenFOAM: The Open Source CFD Toolbox           |
    |  \    /   O peration     | Version:  v2006                                 |
    |   \  /    A nd           | Website:  www.openfoam.com                      |
    |    \/     M anipulation  |                                                 |
    \*---------------------------------------------------------------------------*/
    FoamFile
    {
        version     2.0;
        format      ascii;
        class       volVectorField;
        object      U;
    }
    // * * * * * * * * * * * * * * * * * * * * * * * * * * * * * * * * * * * * * //
    
    dimensions      [0 1 -1 0 0 0 0];
    
    internalField   uniform (16.683 0 0);
    
    boundaryField
    {
    bottom
    {
        type            noSlip;
    }
    "(top|outlet)"
    {
        type            zeroGradient;
    }
    inlet
    {
        type            fixedValue;
		value 			nonuniform List<vector>
    
    175 (
        (0.4034304042067718 2.918409150908757e-07 0 )(1.219526841294299 2.3713829429892147e-06 0 )(2.052363954891162 6.637061467348544e-06 0 )(2.889649016457937 1.3365071195331453e-05 0 )(3.6954173682140046 2.242871553894571e-05 0 )(4.424799004065041 3.338831831890899e-05 0 )(5.052940378966693 4.576251970233412e-05 0 )(5.584194500393391 5.923404982953055e-05 0 )(6.036801434565959 7.368218177288225e-05 0 )(6.427483726724364 8.906131458169418e-05 0 )(6.76837512195122 0.00010527507926829268 0 )(7.0688027834240375 0.0001222819855747164 0 )(7.33617083273228 0.00014006486394334798 0 )(7.576365026555636 0.00015861340436692674 0 )(7.794245408471021 0.00017791735241279834 0 )(7.993888924731183 0.000198005188172043 0 )(8.178553562155782 0.0002188944028979806 0 )(8.350454036697247 0.00024059569593709042 0 )(8.511370413114753 0.00026312304393442623 0 )(8.662743737704918 0.0002864912754098361 0 )(8.805765724590165 0.00031072134491803285 0 )(8.941433302752294 0.00033583636697247704 0 )(9.070592767213114 0.0003618591954098361 0 )(9.193907213114754 0.00038880124590163936 0 )(9.312001193442624 0.0004166967980327869 0 )(9.425413193442623 0.0004455710373770491 0 )(9.534573639344263 0.0004754459029508197 0 )(9.639873363934425 0.000506354244590164 0 )(9.741667652459016 0.0005383249960655738 0 )(9.840250255737706 0.0005713886249180328 0 )(9.935891121311474 0.0006055728721311476 0 )(10.028833639344262 0.0006409131095081967 0 )(10.119278163934426 0.0006774490760655737 0 )(10.207378032786885 0.000715209988852459 0 )(10.293367868852458 0.0007542346032786885 0 )(10.377404590163934 0.000794568415737705 0 )(10.459640891218873 0.000836245377457405 0 )(10.540138401048493 0.000879303349934469 0 )(10.61906150819672 0.0009237963672131148 0 )(10.696412196721312 0.0009697669593442624 0 )(10.772408655737705 0.0010172648918032787 0 )(10.847173508196722 0.0010663264983606557 0 )(10.92066131147541 0.0011170152327868853 0 )(10.993085321100917 0.0011693798558322411 0 )(11.06434262295082 0.0012234805245901637 0 )(11.134651475409836 0.001279370786885246 0 )(11.203998819672131 0.0013370959540983608 0 )(11.272511672131149 0.0013967425377049178 0 )(11.34017855737705 0.0014583627213114755 0 )(11.407124262295081 0.0015220273114754097 0 )(11.473240983606559 0.00158780468852459 0 )(11.538693442622952 0.0016557695081967213 0 )(11.603506885245901 0.0017259845704918034 0 )(11.667705901639344 0.0017985334098360659 0 )(11.731396723460026 0.0018735072346002621 0 )(11.794588524590164 0.0019509892327868854 0 )(11.857232786885245 0.0020310639344262296 0 )(11.919444983606557 0.002113820445901639 0 )(11.981171147540984 0.0021993641704918035 0 )(12.042587278688524 0.002287780839344262 0 )(12.103560353866317 0.0023791901179554395 0 )(12.164128327868854 0.002473691455737705 0 )(12.22450918032787 0.002571407193442623 0 )(12.284530360655738 0.002672446104918033 0 )(12.344381704918034 0.0027769307081967213 0 )(12.403893442622952 0.0028850152459016392 0 )(12.46327193442623 0.002996798819672131 0 )(12.52234131147541 0.0031124516786885242 0 )(12.581404852459016 0.003232102314754099 0 )(12.640173460026212 0.003355923381389253 0 )(12.698852459016393 0.003484066393442623 0 )(12.757599016393442 0.003616690918032787 0 )(12.816096196721311 0.0037539920852459017 0 )(12.874630718954249 0.0038961677777777782 0 )(12.933025490196078 0.004043353921568628 0 )(12.991436842105264 0.004195823157894738 0 )(13.049921052631579 0.004353721973684212 0 )(13.10834605263158 0.004517378815789474 0 )(13.16690588235294 0.004686893790849673 0 )(13.225432679738562 0.004862628431372548 0 )(13.2841625 0.005044798749999999 0 )(13.342954901960784 0.005233662091503268 0 )(13.40186274509804 0.005429490196078431 0 )(13.460960784313725 0.005632635294117648 0 )(13.520248684210527 0.005843438552631579 0 )(13.579732236842107 0.006062124144736843 0 )(13.639427631578947 0.006289127697368422 0 )(13.699349019607844 0.006524772679738563 0 )(13.759602631578947 0.0067696089473684214 0 )(13.8203 0.00702444 0 )(13.881334640522875 0.007290077516339869 0 )(13.943134210526315 0.007567562828947367 0 )(14.00548366013072 0.007857324183006536 0 )(14.068544736842105 0.008160068881578946 0 )(14.132275 0.008476309078947369 0 )(14.196778431372548 0.00880666705882353 0 )(14.261917647058825 0.009151566470588237 0 )(14.327723529411765 0.00951167294117647 0 )(14.394323529411764 0.009887465163398692 0 )(14.461644444444445 0.010279550980392156 0 )(14.5297 0.010688705882352942 0 )(14.598422222222222 0.011115636601307188 0 )(14.668077777777778 0.011561319607843136 0 )(14.738365131578947 0.012026438815789476 0 )(14.809672368421053 0.012512301315789473 0 )(14.881897385620915 0.01301993071895425 0 )(14.955157894736843 0.013550984210526317 0 )(15.029456862745098 0.014107005882352943 0 )(15.105021052631578 0.014689989473684212 0 )(15.182014379084968 0.01530191503267974 0 )(15.260486928104575 0.015945567973856208 0 )(15.340688235294119 0.016623288235294117 0 )(15.42262156862745 0.01733710653594771 0 )(15.506166666666667 0.018087644444444446 0 )(15.590967105263157 0.018872384210526314 0 )(15.676161842105262 0.019683973684210525 0 )(15.760341830065359 0.020511398692810455 0 )(15.842500657894737 0.021341922368421053 0 )(15.921441176470587 0.022163352941176467 0 )(15.996407843137256 0.02296511503267974 0 )(16.06733202614379 0.023741855555555556 0 )(16.134627631578947 0.02450306776315789 0 )(16.199432894736844 0.02525866513157895 0 )(16.262269736842104 0.02601573684210526 0 )(16.322545098039214 0.0267631431372549 0 )(16.379643137254902 0.027492778431372548 0 )(16.43301568627451 0.02819493790849673 0 )(16.481882352941177 0.028858639215686273 0 )(16.525898039215686 0.029473550980392157 0 )(16.564494736842104 0.030030715789473684 0 )(16.597631578947368 0.030524609210526316 0 )(16.62545294117647 0.030953945098039216 0 )(16.648350657894735 0.03132135855263158 0 )(16.66697320261438 0.03163257124183006 0 )(16.68193137254902 0.03189500784313726 0 )(16.69392549019608 0.032116435294117646 0 )(16.70357320261438 0.03230401764705882 0 )(16.7112 0.03246376710526316 0 )(16.717305263157897 0.03260036315789473 0 )(16.72210263157895 0.03271732631578947 0 )(16.725962499999998 0.0328183625 0 )(16.729 0.03290713552631579 0 )(16.7315 0.03298677236842105 0 )(16.7334 0.03305920588235294 0 )(16.735 0.03312547894736842 0 )(16.7363 0.033186800657894734 0 )(16.7373 0.03324398947368421 0 )(16.7381 0.03329746842105263 0 )(16.7388 0.03334763594771242 0 )(16.7392 0.03339483921568628 0 )(16.7395 0.033439492156862746 0 )(16.7397 0.033481482352941176 0 )(16.7398 0.03352123881578947 0 )(16.7397 0.03355865882352941 0 )(16.7396 0.03359410657894737 0 )(16.7394 0.03362741895424837 0 )(16.739 0.033658718421052634 0 )(16.7387 0.03368812368421053 0 )(16.7382 0.033715749999999996 0 )(16.7377 0.03374151875 0 )(16.7372 0.033765493333333334 0 )(16.7366 0.0337878125 0 )(16.736 0.0338083875 0 )(16.7354 0.033827333333333334 0 )(16.7347 0.03384485625 0 )(16.7341 0.0338608 0 )(16.7335 0.0338753 0 )(16.7329 0.0338886 0 )(16.7323 0.0339006 0 )(16.7318 0.03391144 0 )(16.7313 0.0339214 0 )(16.7309 0.0339303 0 )(16.7306 0.033938706666666665 0 )(16.7303 0.03394605333333333 0 )(16.7302 0.0339555125 0 ));
    }
           

     
    }
    // ************************************************************************* //