/*--------------------------------*- C++ -*----------------------------------*\
| =========                 |                                                 |
| \\      /  F ield         | OpenFOAM: The Open Source CFD Toolbox           |
|  \\    /   O peration     | Version:  2506                                  |
|   \\  /    A nd           | Website:  www.openfoam.com                      |
|    \\/     M anipulation  |                                                 |
\*---------------------------------------------------------------------------*/
FoamFile
{
    version     2.0;
    format      ascii;
    arch        "LSB;label=32;scalar=64";
    class       volScalarField;
    location    "6000";
    object      k;
}
// * * * * * * * * * * * * * * * * * * * * * * * * * * * * * * * * * * * * * //

dimensions      [0 2 -2 0 0 0 0];

internalField   nonuniform List<scalar> 
40788
(
0.00820929
0.00827174
0.00819201
0.00797278
0.00776519
0.00753979
0.00730123
0.00705054
0.00678759
0.00651268
0.00622586
0.00592715
0.00561657
0.00529433
0.00495993
0.00461325
0.0042554
0.00388853
0.00351382
0.00313303
0.00274721
0.00236226
0.00197893
0.00161043
0.00125259
0.000934964
0.000635731
0.000416181
0.00021211
0.00012369
0.0102893
0.0100179
0.00985524
0.0097121
0.00957148
0.00942328
0.00926646
0.00909963
0.00892155
0.00873138
0.00852843
0.00831204
0.00808175
0.0078369
0.00757471
0.00729429
0.00699731
0.00668437
0.00635486
0.00600648
0.00563945
0.00525487
0.00485325
0.00443698
0.00400825
0.00357224
0.00313298
0.00269749
0.00227885
0.00186743
0.0651424
0.063448
0.0624037
0.061624
0.0608501
0.0600404
0.059183
0.0582669
0.0572829
0.0562248
0.0550872
0.0538652
0.0525553
0.0511522
0.0496361
0.0480005
0.0462558
0.0444036
0.0424379
0.0403395
0.0381086
0.0357462
0.0332548
0.0306369
0.0279129
0.0250876
0.0222151
0.0192788
0.0164468
0.0135364
0.215397
0.211237
0.208198
0.205938
0.203697
0.201353
0.198867
0.196202
0.193324
0.190212
0.186846
0.183207
0.179279
0.175043
0.170427
0.165406
0.160009
0.154232
0.148047
0.141379
0.13422
0.126557
0.118388
0.109699
0.100554
0.0909304
0.0810352
0.070742
0.0607305
0.0502171
0.431591
0.425937
0.421114
0.417536
0.414054
0.410439
0.406614
0.402498
0.398027
0.393153
0.387833
0.382025
0.375693
0.36879
0.361168
0.352768
0.343631
0.333721
0.32296
0.311163
0.298285
0.284246
0.268986
0.252386
0.234519
0.215187
0.194803
0.172816
0.150905
0.126768
0.632534
0.626923
0.621391
0.617245
0.613378
0.60946
0.605356
0.600942
0.596125
0.590837
0.585016
0.578602
0.571544
0.563772
0.555079
0.545387
0.534735
0.523055
0.510214
0.495926
0.480106
0.462582
0.443207
0.4217
0.398074
0.371803
0.343393
0.311512
0.278814
0.240553
0.787764
0.783033
0.777471
0.773152
0.769348
0.765667
0.761901
0.757874
0.753468
0.748602
0.743201
0.737189
0.730509
0.723081
0.714675
0.705208
0.694713
0.683097
0.670201
0.655682
0.639442
0.621243
0.600878
0.577951
0.552415
0.523472
0.491623
0.454826
0.41628
0.368928
0.903415
0.899595
0.894308
0.890054
0.886483
0.883203
0.879952
0.876502
0.87272
0.868519
0.863806
0.858501
0.852542
0.845844
0.838269
0.829721
0.820152
0.809453
0.797459
0.78382
0.768433
0.751023
0.731359
0.708984
0.683808
0.654878
0.62264
0.584625
0.544176
0.492759
0.989399
0.986556
0.981688
0.977567
0.974242
0.971385
0.968694
0.965894
0.962843
0.959443
0.955588
0.951191
0.946191
0.9405
0.933988
0.926549
0.91812
0.908586
0.897783
0.885476
0.871495
0.855533
0.837352
0.816475
0.792782
0.76525
0.734246
0.697124
0.657072
0.604926
1.05397
1.05205
1.04769
1.04376
1.04066
1.03815
1.03595
1.03376
1.03142
1.02882
1.02585
1.02241
1.01845
1.01387
1.00854
1.00236
0.995249
0.987085
0.977717
0.966911
0.954495
0.940223
0.923866
0.904923
0.883239
0.857796
0.828861
0.793788
0.755428
0.704616
1.10335
1.10221
1.09842
1.09476
1.09185
1.08961
1.08778
1.08607
1.08434
1.08246
1.08031
1.07778
1.07482
1.07134
1.06721
1.06232
1.05657
1.04985
1.04202
1.03284
1.02213
1.00968
0.995237
0.978407
0.958965
0.935943
0.909501
0.877098
0.841177
0.792968
1.14195
1.14141
1.13822
1.1349
1.13218
1.13012
1.12854
1.1272
1.12594
1.12465
1.12319
1.12146
1.11942
1.11694
1.11394
1.11029
1.10587
1.10057
1.09425
1.08671
1.07778
1.0672
1.05478
1.0401
1.02297
1.00251
0.978779
0.949357
0.916332
0.87147
1.17278
1.17271
1.17015
1.16723
1.16469
1.16274
1.1613
1.1602
1.15929
1.15844
1.15754
1.15648
1.15521
1.15362
1.15162
1.1491
1.14592
1.14196
1.1371
1.13114
1.12392
1.11521
1.10482
1.09234
1.07759
1.05972
1.0388
1.01248
0.98268
0.941532
1.19789
1.19821
1.19621
1.19366
1.19133
1.1895
1.18817
1.18722
1.18653
1.186
1.18551
1.18499
1.18435
1.18351
1.18238
1.18086
1.17879
1.17605
1.17252
1.16804
1.16245
1.15553
1.1471
1.13679
1.1244
1.10916
1.0911
1.06801
1.04164
1.00442
1.21864
1.21927
1.21773
1.21554
1.21343
1.21171
1.21048
1.20964
1.20912
1.20883
1.20866
1.20854
1.20839
1.20816
1.20776
1.20709
1.20599
1.20434
1.20202
1.19888
1.19479
1.18955
1.18298
1.17474
1.16465
1.15199
1.13676
1.11694
1.09407
1.06106
1.23597
1.23682
1.23568
1.23383
1.23193
1.23034
1.22918
1.22844
1.22804
1.22792
1.228
1.22819
1.22845
1.22871
1.2289
1.22893
1.22867
1.22796
1.22671
1.22478
1.22204
1.21834
1.21349
1.2072
1.19929
1.18911
1.17664
1.16004
1.14065
1.11198
1.25054
1.25158
1.25078
1.24924
1.24756
1.2461
1.24501
1.24433
1.24401
1.24402
1.24428
1.24473
1.24531
1.24596
1.24663
1.24725
1.24768
1.24779
1.24746
1.24659
1.24507
1.24275
1.23948
1.23499
1.22912
1.22127
1.21143
1.19794
1.18194
1.15762
1.26289
1.26406
1.26356
1.26231
1.26084
1.2595
1.25849
1.25786
1.2576
1.2577
1.25808
1.25872
1.25955
1.26052
1.26159
1.26268
1.2637
1.26449
1.26495
1.26501
1.26456
1.26347
1.26161
1.25876
1.25476
1.2491
1.24173
1.23119
1.21845
1.19836
1.27341
1.27468
1.27443
1.27344
1.27218
1.27098
1.27004
1.26945
1.26923
1.26938
1.26985
1.27062
1.27163
1.27286
1.27425
1.27574
1.27724
1.27859
1.27973
1.28057
1.28105
1.28104
1.28045
1.27907
1.27677
1.27311
1.26803
1.26026
1.25062
1.23456
1.2824
1.28375
1.28371
1.28296
1.28189
1.28083
1.27997
1.27942
1.27923
1.27941
1.27993
1.28078
1.28193
1.28334
1.28498
1.2868
1.2887
1.29052
1.29222
1.29373
1.295
1.29593
1.29645
1.29638
1.29561
1.29376
1.2908
1.28558
1.27883
1.26658
1.29011
1.2915
1.29164
1.29111
1.29023
1.2893
1.28852
1.28802
1.28785
1.28804
1.2886
1.2895
1.29074
1.29228
1.29411
1.29618
1.29841
1.30061
1.30277
1.30484
1.30678
1.30852
1.30999
1.31107
1.31167
1.31145
1.3104
1.30753
1.30347
1.29475
1.29671
1.29814
1.29843
1.29809
1.29739
1.29659
1.2959
1.29545
1.2953
1.2955
1.29606
1.29699
1.29828
1.29991
1.30187
1.30414
1.30662
1.30914
1.31167
1.3142
1.3167
1.31912
1.32142
1.3235
1.32529
1.32652
1.32719
1.32645
1.32485
1.31939
1.30238
1.30381
1.30424
1.30406
1.30352
1.30286
1.30226
1.30186
1.30173
1.30193
1.3025
1.30343
1.30474
1.30643
1.30848
1.31088
1.31357
1.31633
1.31916
1.32207
1.32502
1.32801
1.33101
1.33394
1.33677
1.33928
1.34148
1.34265
1.34329
1.34079
1.30721
1.30865
1.30918
1.30915
1.30877
1.30824
1.30774
1.30738
1.30728
1.30749
1.30805
1.30897
1.31029
1.312
1.3141
1.3166
1.31943
1.32238
1.32545
1.32865
1.33198
1.33543
1.33901
1.34267
1.34639
1.35
1.35355
1.35641
1.35907
1.35924
1.31132
1.31275
1.31337
1.31347
1.31323
1.31283
1.31242
1.31213
1.31206
1.31227
1.31282
1.31373
1.31503
1.31674
1.31887
1.32142
1.32435
1.32745
1.33069
1.33412
1.33774
1.34158
1.34563
1.34989
1.35436
1.35893
1.36365
1.368
1.37245
1.37501
1.31479
1.3162
1.31689
1.31711
1.317
1.31672
1.3164
1.31618
1.31614
1.31636
1.3169
1.3178
1.31908
1.32078
1.3229
1.32547
1.32847
1.33166
1.33504
1.33863
1.34248
1.34661
1.35106
1.35581
1.36092
1.36628
1.37201
1.37766
1.38367
1.38835
1.31768
1.31907
1.31981
1.32013
1.32014
1.31997
1.31975
1.3196
1.3196
1.31984
1.32037
1.32125
1.32251
1.32418
1.32629
1.32886
1.33188
1.33513
1.3386
1.34232
1.34634
1.3507
1.35545
1.3606
1.36622
1.37226
1.37884
1.3856
1.39298
1.39951
1.32005
1.32141
1.32219
1.3226
1.32272
1.32266
1.32253
1.32245
1.3225
1.32276
1.32329
1.32415
1.32539
1.32703
1.32911
1.33166
1.33468
1.33796
1.34147
1.34527
1.34942
1.35395
1.35893
1.36441
1.37045
1.37704
1.38433
1.39202
1.40057
1.40871
1.32194
1.32327
1.32409
1.32457
1.32479
1.32483
1.32479
1.32478
1.32488
1.32517
1.32571
1.32656
1.32777
1.32938
1.33142
1.33394
1.33693
1.34021
1.34375
1.3476
1.35182
1.35648
1.36164
1.36736
1.37374
1.38078
1.38864
1.39712
1.40666
1.41616
1.32339
1.32469
1.32554
1.32608
1.32638
1.32651
1.32657
1.32663
1.32679
1.32711
1.32766
1.32851
1.3297
1.33127
1.33328
1.33575
1.33871
1.34196
1.34549
1.34936
1.35364
1.35838
1.36367
1.36958
1.37621
1.38361
1.39194
1.40106
1.41141
1.42206
1.32444
1.3257
1.32657
1.32717
1.32754
1.32776
1.3279
1.32804
1.32825
1.32861
1.32919
1.33003
1.3312
1.33275
1.33472
1.33715
1.34004
1.34326
1.34677
1.35064
1.35494
1.35973
1.36512
1.37116
1.37798
1.38565
1.39435
1.40398
1.415
1.4266
1.3251
1.32633
1.32721
1.32786
1.3283
1.3286
1.32882
1.32903
1.3293
1.32971
1.33031
1.33116
1.33232
1.33385
1.33578
1.33815
1.34099
1.34414
1.34762
1.35147
1.35578
1.3606
1.36604
1.37218
1.37914
1.38701
1.396
1.40603
1.41758
1.42995
1.32539
1.3266
1.32749
1.32818
1.32868
1.32905
1.32934
1.32962
1.32996
1.33042
1.33105
1.33192
1.33308
1.33458
1.33648
1.3388
1.34157
1.34466
1.34809
1.35192
1.35621
1.36104
1.36651
1.37271
1.37978
1.38779
1.39699
1.40733
1.41929
1.43227
1.32535
1.32653
1.32743
1.32815
1.3287
1.32913
1.3295
1.32985
1.33025
1.33076
1.33143
1.33232
1.33348
1.33497
1.33684
1.33912
1.34181
1.34484
1.34822
1.35201
1.35628
1.36111
1.36659
1.37282
1.37995
1.38807
1.39741
1.40798
1.42024
1.43368
1.32498
1.32614
1.32704
1.32778
1.32838
1.32887
1.3293
1.32972
1.33019
1.33075
1.33146
1.33238
1.33355
1.33504
1.33688
1.33911
1.34174
1.3447
1.34803
1.35178
1.35602
1.36084
1.36632
1.37256
1.37973
1.38791
1.39735
1.40807
1.42054
1.43434
1.3243
1.32543
1.32633
1.3271
1.32773
1.32828
1.32877
1.32926
1.32978
1.3304
1.33116
1.33211
1.3333
1.33479
1.33661
1.3388
1.34136
1.34426
1.34754
1.35125
1.35547
1.36026
1.36573
1.37198
1.37915
1.38737
1.39687
1.40769
1.4203
1.43433
1.32331
1.32441
1.32532
1.3261
1.32677
1.32736
1.32791
1.32846
1.32905
1.32972
1.33053
1.33152
1.33273
1.33423
1.33603
1.33818
1.34069
1.34354
1.34677
1.35045
1.35463
1.3594
1.36486
1.37109
1.37827
1.3865
1.39603
1.4069
1.41959
1.43378
1.32201
1.3231
1.324
1.3248
1.3255
1.32614
1.32674
1.32735
1.328
1.32873
1.32959
1.33062
1.33186
1.33336
1.33516
1.33728
1.33974
1.34254
1.34574
1.34939
1.35355
1.35829
1.36373
1.36995
1.37712
1.38535
1.39487
1.40577
1.41848
1.43275
1.32043
1.32149
1.32239
1.32321
1.32393
1.32461
1.32526
1.32593
1.32663
1.32742
1.32833
1.3294
1.33068
1.3322
1.33399
1.33609
1.33851
1.34129
1.34446
1.34808
1.35222
1.35695
1.36236
1.36857
1.37572
1.38393
1.39345
1.40433
1.41704
1.43133
1.31855
1.3196
1.3205
1.32132
1.32207
1.32278
1.32348
1.3242
1.32496
1.32581
1.32677
1.32789
1.3292
1.33074
1.33253
1.33462
1.33702
1.33978
1.34293
1.34654
1.35066
1.35537
1.36077
1.36697
1.3741
1.38229
1.39178
1.40264
1.4153
1.42958
1.3164
1.31742
1.31831
1.31914
1.31991
1.32066
1.3214
1.32217
1.32299
1.32389
1.32491
1.32607
1.32742
1.32898
1.33079
1.33287
1.33527
1.33802
1.34117
1.34477
1.34888
1.35359
1.35898
1.36516
1.37228
1.38045
1.3899
1.40072
1.41332
1.42754
1.31395
1.31495
1.31584
1.31668
1.31747
1.31825
1.31903
1.31984
1.32072
1.32167
1.32274
1.32395
1.32534
1.32693
1.32875
1.33085
1.33326
1.33601
1.33917
1.34277
1.34688
1.35159
1.35698
1.36316
1.37026
1.37841
1.38782
1.3986
1.41113
1.42527
1.31122
1.3122
1.31308
1.31392
1.31474
1.31554
1.31636
1.31722
1.31815
1.31916
1.32028
1.32154
1.32296
1.32459
1.32644
1.32857
1.33099
1.33376
1.33693
1.34055
1.34467
1.34939
1.35479
1.36096
1.36806
1.37619
1.38557
1.39629
1.40874
1.42279
1.3082
1.30916
1.31003
1.31088
1.31172
1.31255
1.31341
1.31431
1.31528
1.31634
1.31751
1.31882
1.3203
1.32196
1.32386
1.32601
1.32847
1.33127
1.33447
1.3381
1.34225
1.34699
1.3524
1.35858
1.36567
1.37379
1.38314
1.39381
1.40618
1.42012
1.30489
1.30582
1.3067
1.30756
1.30841
1.30927
1.31016
1.3111
1.31212
1.31323
1.31445
1.31581
1.31734
1.31906
1.321
1.3232
1.3257
1.32854
1.33177
1.33544
1.33962
1.34438
1.34981
1.35601
1.36311
1.37122
1.38055
1.39118
1.40346
1.4173
1.30128
1.3022
1.30307
1.30394
1.3048
1.30569
1.30662
1.3076
1.30867
1.30983
1.3111
1.31252
1.3141
1.31587
1.31787
1.32012
1.32267
1.32556
1.32883
1.33254
1.33676
1.34156
1.34703
1.35325
1.36037
1.36848
1.37779
1.38838
1.40058
1.41432
1.29737
1.29828
1.29915
1.30003
1.30091
1.30183
1.30279
1.30381
1.30492
1.30613
1.30746
1.30893
1.31057
1.31241
1.31446
1.31678
1.31938
1.32233
1.32565
1.32942
1.33369
1.33853
1.34404
1.3503
1.35744
1.36557
1.37486
1.38542
1.39756
1.4112
1.29317
1.29406
1.29494
1.29583
1.29673
1.29767
1.29866
1.29973
1.30088
1.30214
1.30353
1.30506
1.30677
1.30866
1.31079
1.31316
1.31583
1.31884
1.32223
1.32606
1.33039
1.33529
1.34084
1.34715
1.35432
1.36247
1.37177
1.3823
1.39438
1.40793
1.28865
1.28953
1.29042
1.29132
1.29225
1.29321
1.29424
1.29535
1.29655
1.29786
1.29931
1.3009
1.30267
1.30464
1.30683
1.30928
1.31202
1.31509
1.31855
1.32245
1.32684
1.33181
1.33742
1.34378
1.351
1.35918
1.36849
1.37901
1.39104
1.40452
1.28381
1.28468
1.28558
1.28651
1.28746
1.28846
1.28952
1.29067
1.29192
1.29329
1.29479
1.29645
1.29829
1.30032
1.30258
1.3051
1.30792
1.31107
1.31461
1.31858
1.32305
1.32809
1.33377
1.3402
1.34747
1.35568
1.36502
1.37554
1.38753
1.40095
1.27864
1.27951
1.28042
1.28137
1.28235
1.28339
1.28449
1.28569
1.28699
1.28841
1.28997
1.29169
1.29359
1.2957
1.29804
1.30064
1.30353
1.30677
1.31039
1.31444
1.319
1.32411
1.32988
1.33637
1.3437
1.35197
1.36134
1.37188
1.38385
1.39721
1.27313
1.274
1.27492
1.27588
1.2769
1.27797
1.27912
1.28037
1.28172
1.2832
1.28482
1.28661
1.28858
1.29076
1.29318
1.29586
1.29884
1.30217
1.30587
1.31002
1.31466
1.31987
1.32572
1.33229
1.3397
1.34803
1.35744
1.368
1.37996
1.3933
1.26728
1.26815
1.26907
1.27005
1.2711
1.27221
1.27341
1.2747
1.27611
1.27765
1.27934
1.28119
1.28324
1.2855
1.28799
1.29076
1.29383
1.29725
1.30105
1.30529
1.31003
1.31533
1.32128
1.32794
1.33543
1.34383
1.3533
1.3639
1.37586
1.38918
1.26108
1.26194
1.26287
1.26386
1.26493
1.26608
1.26732
1.26867
1.27013
1.27173
1.27349
1.27542
1.27754
1.27988
1.28246
1.28532
1.28848
1.29199
1.2959
1.30024
1.30508
1.31049
1.31653
1.3233
1.33088
1.33936
1.34889
1.35954
1.37152
1.38484
1.2545
1.25536
1.2563
1.25731
1.2584
1.25959
1.26087
1.26226
1.26378
1.26545
1.26727
1.26927
1.27147
1.27389
1.27656
1.27951
1.28277
1.28639
1.29039
1.29485
1.2998
1.30531
1.31147
1.31833
1.32601
1.33459
1.3442
1.35491
1.36693
1.38025
1.24755
1.24841
1.24935
1.25038
1.2515
1.25271
1.25403
1.25547
1.25705
1.25877
1.26066
1.26273
1.26501
1.26752
1.27028
1.27333
1.27669
1.28041
1.28452
1.28909
1.29415
1.29978
1.30605
1.31303
1.32082
1.3295
1.33919
1.34998
1.36204
1.37539
1.2402
1.24106
1.24202
1.24306
1.2442
1.24544
1.2468
1.24829
1.24992
1.2517
1.25366
1.2558
1.25816
1.26075
1.2636
1.26675
1.27021
1.27403
1.27826
1.28294
1.28813
1.29388
1.30027
1.30737
1.31527
1.32406
1.33385
1.34472
1.35684
1.37023
1.23244
1.23331
1.23428
1.23534
1.2365
1.23777
1.23917
1.2407
1.24238
1.24422
1.24624
1.24846
1.2509
1.25357
1.25652
1.25976
1.26332
1.26726
1.2716
1.27639
1.2817
1.28758
1.29409
1.30131
1.30933
1.31823
1.32813
1.33909
1.35128
1.36474
1.22427
1.22514
1.22612
1.2272
1.22838
1.22969
1.23112
1.2327
1.23443
1.23633
1.23841
1.2407
1.24322
1.24598
1.24901
1.25235
1.25601
1.26006
1.26451
1.26943
1.27485
1.28085
1.28749
1.29484
1.30299
1.31201
1.32201
1.33308
1.34535
1.35887
1.21564
1.21653
1.21752
1.21862
1.21984
1.22117
1.22265
1.22427
1.22605
1.228
1.23015
1.23251
1.2351
1.23794
1.24107
1.2445
1.24827
1.25242
1.25698
1.26202
1.26757
1.27369
1.28046
1.28794
1.29621
1.30535
1.31547
1.32665
1.33901
1.35261
1.20656
1.20746
1.20847
1.20959
1.21084
1.21221
1.21372
1.21539
1.21722
1.21923
1.22144
1.22387
1.22654
1.22946
1.23267
1.2362
1.24007
1.24433
1.249
1.25415
1.25982
1.26607
1.27297
1.28057
1.28897
1.29824
1.30848
1.31976
1.33222
1.34591
1.197
1.19792
1.19895
1.20009
1.20137
1.20277
1.20433
1.20604
1.20793
1.21
1.21227
1.21477
1.21751
1.22052
1.22382
1.22744
1.23141
1.23577
1.24055
1.24582
1.25161
1.25798
1.265
1.27273
1.28125
1.29065
1.301
1.3124
1.32496
1.33874
1.18694
1.18787
1.18893
1.1901
1.19141
1.19285
1.19445
1.19621
1.19815
1.20028
1.20262
1.20519
1.20801
1.2111
1.21448
1.21819
1.22226
1.22672
1.23162
1.237
1.2429
1.24939
1.25653
1.26439
1.27304
1.28255
1.29302
1.30453
1.31719
1.33107
1.17635
1.17731
1.17839
1.17959
1.18094
1.18242
1.18407
1.18588
1.18787
1.19006
1.19247
1.19511
1.198
1.20117
1.20464
1.20845
1.21261
1.21717
1.22218
1.22766
1.23368
1.24029
1.24755
1.25553
1.26429
1.27393
1.28451
1.29613
1.30889
1.32286
1.16523
1.16621
1.16731
1.16855
1.16993
1.17146
1.17315
1.17502
1.17707
1.17932
1.18179
1.18451
1.18748
1.19073
1.19428
1.19818
1.20244
1.2071
1.21221
1.21781
1.22394
1.23066
1.23804
1.24613
1.25501
1.26475
1.27545
1.28717
1.30003
1.31409
1.15353
1.15454
1.15568
1.15696
1.15837
1.15995
1.16169
1.1636
1.16571
1.16803
1.17057
1.17335
1.1764
1.17973
1.18338
1.18736
1.19172
1.19648
1.20169
1.2074
1.21364
1.22047
1.22796
1.23616
1.24516
1.25501
1.26581
1.27763
1.29058
1.30473
1.14124
1.14228
1.14345
1.14476
1.14622
1.14784
1.14963
1.15161
1.15377
1.15616
1.15877
1.16162
1.16475
1.16816
1.17189
1.17597
1.18042
1.18529
1.1906
1.19641
1.20276
1.2097
1.2173
1.22561
1.23471
1.24467
1.25557
1.26749
1.28052
1.29475
1.12831
1.12937
1.13058
1.13193
1.13343
1.1351
1.13694
1.13897
1.1412
1.14365
1.14633
1.14927
1.15247
1.15597
1.1598
1.16397
1.16852
1.17348
1.1789
1.18481
1.19127
1.19832
1.20602
1.21444
1.22365
1.23371
1.2447
1.25671
1.26982
1.28412
1.11465
1.11575
1.11699
1.11838
1.11993
1.12166
1.12356
1.12565
1.12795
1.13047
1.13323
1.13624
1.13953
1.14312
1.14703
1.1513
1.15595
1.16102
1.16654
1.17256
1.17912
1.18628
1.1941
1.20262
1.21193
1.22209
1.23317
1.24526
1.25845
1.27281
1.10019
1.10133
1.10261
1.10405
1.10566
1.10744
1.1094
1.11156
1.11393
1.11653
1.11937
1.12247
1.12585
1.12954
1.13355
1.13792
1.14267
1.14785
1.15348
1.15961
1.16628
1.17356
1.18148
1.19011
1.19952
1.20977
1.22094
1.23311
1.24637
1.26079
1.08483
1.08601
1.08735
1.08884
1.09051
1.09236
1.09439
1.09663
1.09908
1.10176
1.10469
1.10789
1.11137
1.11515
1.11927
1.12375
1.12861
1.1339
1.13965
1.1459
1.15269
1.16007
1.16811
1.17685
1.18636
1.19671
1.20797
1.22022
1.23354
1.24802
1.06847
1.06971
1.07111
1.07267
1.0744
1.07632
1.07844
1.08076
1.0833
1.08608
1.08911
1.09241
1.09599
1.09989
1.10412
1.10872
1.1137
1.11911
1.12498
1.13135
1.13827
1.14578
1.15393
1.16279
1.17241
1.18286
1.19421
1.20654
1.21993
1.23446
1.05105
1.05234
1.0538
1.05544
1.05725
1.05925
1.06145
1.06387
1.06651
1.06939
1.07252
1.07593
1.07964
1.08365
1.08801
1.09273
1.09785
1.10339
1.10939
1.1159
1.12294
1.13058
1.13887
1.14784
1.15758
1.16814
1.17959
1.19201
1.20546
1.22005
1.03248
1.03384
1.03536
1.03707
1.03896
1.04105
1.04335
1.04586
1.04861
1.0516
1.05485
1.05838
1.06221
1.06636
1.07084
1.0757
1.08096
1.08664
1.09279
1.09944
1.10663
1.11441
1.12283
1.13194
1.14181
1.15248
1.16404
1.17655
1.19008
1.20473
1.01269
1.01411
1.0157
1.01749
1.01947
1.02165
1.02404
1.02666
1.02952
1.03263
1.036
1.03966
1.04362
1.0479
1.05253
1.05754
1.06294
1.06878
1.07508
1.08188
1.08922
1.09716
1.10573
1.11498
1.12499
1.13579
1.14747
1.16008
1.1737
1.18841
0.991597
0.993077
0.994747
0.996612
0.998678
1.00096
1.00345
1.00618
1.00915
1.01238
1.01589
1.01968
1.02378
1.0282
1.03298
1.03814
1.0437
1.0497
1.05616
1.06312
1.07063
1.07873
1.08746
1.09687
1.10703
1.11797
1.12978
1.1425
1.15622
1.17102
0.969117
0.970662
0.972407
0.974356
0.976514
0.97889
0.981494
0.984336
0.987428
0.990784
0.994418
0.998348
1.00259
1.00717
1.0121
1.01742
1.02314
1.0293
1.03594
1.04307
1.05076
1.05902
1.06792
1.0775
1.08782
1.09892
1.11086
1.12372
1.13755
1.15244
0.94515
0.946766
0.94859
0.950625
0.952878
0.955357
0.958071
0.961031
0.964247
0.967734
0.971506
0.975579
0.979972
0.984704
0.989798
0.995277
1.00117
1.0075
1.01431
1.02163
1.02949
1.03794
1.04701
1.05677
1.06725
1.07852
1.09062
1.10361
1.11757
1.13257
0.919592
0.92128
0.923184
0.92531
0.927662
0.930249
0.933079
0.936161
0.939507
0.94313
0.947045
0.951267
0.955814
0.960706
0.965965
0.971615
0.977681
0.984193
0.991182
0.998681
1.00673
1.01536
1.02462
1.03456
1.04522
1.05666
1.06892
1.08207
1.09617
1.11128
0.892304
0.894067
0.896058
0.89828
0.900737
0.903437
0.906389
0.909601
0.913084
0.91685
0.920915
0.925293
0.930002
0.935061
0.940492
0.946319
0.952566
0.959262
0.966438
0.974126
0.982363
0.991187
1.00064
1.01077
1.02161
1.03323
1.04566
1.05897
1.07322
1.08847
0.863118
0.864963
0.867047
0.869372
0.871942
0.874764
0.877846
0.881197
0.884826
0.888746
0.89297
0.897514
0.902395
0.907631
0.913244
0.919256
0.925693
0.932583
0.939954
0.94784
0.956275
0.965298
0.974948
0.985268
0.996304
1.0081
1.02072
1.0342
1.0486
1.06399
0.831827
0.83376
0.835944
0.838381
0.841075
0.84403
0.847254
0.850755
0.854543
0.85863
0.863028
0.867752
0.872819
0.878246
0.884055
0.890268
0.896908
0.904004
0.911584
0.919679
0.928324
0.937556
0.947413
0.957937
0.969173
0.981166
0.993965
1.00762
1.02219
1.03772
0.798152
0.800184
0.802481
0.805043
0.807873
0.810977
0.814359
0.818028
0.821993
0.826265
0.830856
0.835781
0.841054
0.846693
0.852719
0.859152
0.866017
0.873339
0.881146
0.889469
0.898342
0.9078
0.91788
0.928622
0.940071
0.952269
0.965264
0.979104
0.993841
1.00953
0.76175
0.763896
0.76632
0.769024
0.772009
0.775279
0.778841
0.782701
0.786868
0.791351
0.796163
0.801316
0.806824
0.812704
0.818975
0.825658
0.832775
0.840352
0.848415
0.856994
0.866121
0.87583
0.886157
0.897141
0.908822
0.921245
0.934453
0.948494
0.963415
0.97927
0.722239
0.724511
0.727078
0.72994
0.7331
0.736562
0.74033
0.74441
0.74881
0.753539
0.758607
0.764023
0.769802
0.775958
0.782511
0.78948
0.796888
0.804757
0.813115
0.821988
0.831406
0.841402
0.85201
0.863269
0.875215
0.887892
0.90134
0.915605
0.930733
0.946774
0.679303
0.6817
0.684417
0.687453
0.690808
0.694484
0.698485
0.702817
0.707485
0.712498
0.717863
0.723576
0.729656
0.736122
0.742993
0.750289
0.75803
0.766239
0.774935
0.784146
0.7939
0.804227
0.815162
0.826739
0.838993
0.851964
0.865691
0.880217
0.895585
0.911842
0.633662
0.636143
0.638961
0.642114
0.645603
0.649429
0.653596
0.65811
0.662977
0.668206
0.673807
0.67979
0.686168
0.692955
0.700167
0.707822
0.715939
0.724526
0.733596
0.74318
0.753308
0.76401
0.775317
0.787259
0.799869
0.813182
0.827236
0.842068
0.85772
0.874235
0.586759
0.589269
0.592119
0.595307
0.598836
0.602707
0.606927
0.611501
0.616438
0.621748
0.627445
0.633558
0.640093
0.647062
0.65448
0.662363
0.67073
0.6796
0.688993
0.698929
0.709435
0.720534
0.73225
0.744588
0.757584
0.771275
0.785696
0.800881
0.816865
0.833685
0.539568
0.542072
0.544911
0.548087
0.551602
0.55546
0.559667
0.564231
0.569161
0.574468
0.580165
0.58627
0.592799
0.59977
0.6072
0.615109
0.623518
0.632461
0.64197
0.652061
0.662756
0.674076
0.686046
0.698686
0.712021
0.726075
0.740877
0.75644
0.772781
0.789938
0.493126
0.49556
0.498321
0.50141
0.504831
0.508589
0.512692
0.517148
0.521969
0.527165
0.532752
0.538746
0.545166
0.552031
0.55936
0.567176
0.575503
0.584366
0.593794
0.603815
0.614455
0.625742
0.637706
0.650397
0.663831
0.678029
0.693012
0.708799
0.725406
0.742854
0.448391
0.450671
0.453267
0.456182
0.45942
0.462986
0.466888
0.471136
0.47574
0.480715
0.486075
0.491837
0.49802
0.504644
0.511733
0.519309
0.527399
0.536029
0.54523
0.555031
0.565463
0.576556
0.588343
0.60086
0.614135
0.628199
0.643076
0.658803
0.675409
0.692908
0.405716
0.407781
0.410156
0.412843
0.415842
0.419159
0.4228
0.426774
0.431092
0.435767
0.440814
0.446251
0.452096
0.45837
0.465098
0.472304
0.480015
0.488261
0.497072
0.506481
0.516522
0.52723
0.53864
0.550789
0.563712
0.577442
0.592012
0.607452
0.623791
0.641051
0.364639
0.366549
0.368749
0.37124
0.374024
0.377106
0.380492
0.384192
0.388215
0.392574
0.397284
0.402362
0.407826
0.413697
0.419999
0.426757
0.433999
0.441754
0.450056
0.458938
0.468437
0.478591
0.489437
0.501018
0.513372
0.526539
0.540558
0.555464
0.57129
0.588066
0.324982
0.326798
0.32888
0.331226
0.333842
0.33673
0.339898
0.343355
0.347109
0.351173
0.355562
0.36029
0.365376
0.37084
0.376703
0.382992
0.389733
0.396955
0.40469
0.412973
0.421841
0.431333
0.441489
0.452352
0.463967
0.476377
0.489626
0.503758
0.518812
0.534827
0.28741
0.289108
0.291052
0.293242
0.295681
0.298372
0.30132
0.304533
0.30802
0.311792
0.315861
0.320242
0.324951
0.330008
0.335433
0.341249
0.34748
0.354156
0.361306
0.368963
0.377163
0.385943
0.395345
0.40541
0.416183
0.427712
0.440043
0.453224
0.467302
0.482321
0.252899
0.254441
0.256206
0.258195
0.260411
0.262857
0.265538
0.268462
0.271636
0.275072
0.278781
0.282776
0.287074
0.291689
0.296643
0.301956
0.307651
0.313755
0.320293
0.327298
0.334801
0.342839
0.351449
0.360672
0.370551
0.381132
0.39246
0.404586
0.417558
0.431425
0.222438
0.223791
0.22534
0.227084
0.229028
0.231175
0.233532
0.236106
0.238904
0.241939
0.24522
0.248761
0.252576
0.256683
0.261098
0.265842
0.270936
0.276405
0.282273
0.288568
0.295322
0.302566
0.310335
0.318667
0.327601
0.337181
0.347449
0.358453
0.370241
0.382861
0.196804
0.197946
0.199252
0.200721
0.202359
0.20417
0.20616
0.208335
0.210706
0.213282
0.216075
0.219096
0.222362
0.225886
0.229688
0.233785
0.238199
0.242952
0.248068
0.253573
0.259497
0.265868
0.272721
0.280088
0.288007
0.296516
0.305657
0.315473
0.326007
0.337307
0.176335
0.177265
0.178324
0.179513
0.180836
0.182299
0.183907
0.185668
0.18759
0.189684
0.191959
0.194428
0.197105
0.200005
0.203144
0.206542
0.210217
0.214191
0.218487
0.223131
0.228149
0.23357
0.239425
0.245745
0.252566
0.259924
0.267857
0.276405
0.285608
0.295511
0.160813
0.161548
0.162379
0.163308
0.164338
0.165475
0.166724
0.168092
0.169586
0.171215
0.17299
0.174922
0.177022
0.179305
0.181787
0.184484
0.187414
0.190597
0.194056
0.197813
0.201895
0.206327
0.211139
0.216363
0.22203
0.228174
0.234833
0.242044
0.249846
0.25828
0.149548
0.150118
0.150756
0.151463
0.152244
0.153103
0.154043
0.155071
0.156194
0.157418
0.158753
0.160208
0.161794
0.163523
0.165408
0.167463
0.169705
0.172152
0.174822
0.177737
0.18092
0.184396
0.188191
0.192334
0.196855
0.201786
0.207163
0.21302
0.219396
0.226328
0.141644
0.142079
0.142561
0.143092
0.143673
0.144309
0.145003
0.145759
0.146584
0.147482
0.148461
0.149529
0.150693
0.151964
0.153353
0.154871
0.156531
0.158348
0.160339
0.16252
0.164912
0.167536
0.170414
0.173573
0.177038
0.180841
0.18501
0.189581
0.194587
0.200065
0.136224
0.136554
0.136915
0.137309
0.137738
0.138205
0.138712
0.139263
0.139861
0.140513
0.141221
0.141993
0.142836
0.143755
0.144759
0.145858
0.147062
0.148382
0.14983
0.15142
0.153168
0.155091
0.157208
0.15954
0.162108
0.164938
0.168056
0.171492
0.175275
0.179439
0.132554
0.132804
0.133076
0.13337
0.133688
0.134031
0.134403
0.134805
0.13524
0.135713
0.136226
0.136783
0.137391
0.138053
0.138776
0.139566
0.140432
0.141381
0.142422
0.143566
0.144824
0.14621
0.147736
0.14942
0.151279
0.153331
0.155599
0.158105
0.160875
0.163936
0.130073
0.130266
0.130473
0.130696
0.130936
0.131195
0.131472
0.131772
0.132095
0.132443
0.132821
0.133229
0.133673
0.134156
0.134681
0.135254
0.135881
0.136566
0.137316
0.13814
0.139044
0.140038
0.141132
0.142338
0.143668
0.145136
0.146759
0.148553
0.150538
0.152735
0.128438
0.128585
0.128741
0.12891
0.12909
0.129284
0.129493
0.129718
0.12996
0.130223
0.130507
0.130814
0.131148
0.13151
0.131903
0.132331
0.132796
0.133303
0.133856
0.134459
0.135118
0.13584
0.136631
0.1375
0.138455
0.139507
0.140665
0.141943
0.143354
0.144914
0.127439
0.12755
0.127668
0.127795
0.12793
0.128076
0.128232
0.128402
0.128585
0.128783
0.128998
0.129231
0.129484
0.129759
0.130058
0.130383
0.130736
0.13112
0.131538
0.131992
0.132488
0.133027
0.133616
0.134258
0.134959
0.135726
0.136565
0.137486
0.138497
0.139608
0.126863
0.126953
0.127048
0.127148
0.127255
0.127369
0.127491
0.127623
0.127765
0.12792
0.128087
0.128268
0.128464
0.128677
0.128909
0.12916
0.129433
0.12973
0.130052
0.130402
0.130782
0.131195
0.131644
0.132131
0.13266
0.133236
0.133862
0.134543
0.135286
0.136097
0.126558
0.126635
0.126715
0.1268
0.126889
0.126984
0.127085
0.127194
0.127311
0.127438
0.127575
0.127723
0.127884
0.128058
0.128246
0.12845
0.128671
0.128909
0.129167
0.129446
0.129748
0.130074
0.130425
0.130806
0.131217
0.131661
0.132141
0.132661
0.133223
0.133831
0.126429
0.126499
0.126571
0.126646
0.126724
0.126808
0.126896
0.126991
0.127093
0.127203
0.127321
0.127449
0.127588
0.127737
0.127898
0.128073
0.12826
0.128462
0.12868
0.128914
0.129166
0.129436
0.129726
0.130037
0.13037
0.130728
0.131112
0.131523
0.131964
0.132438
0.12642
0.126485
0.126552
0.126621
0.126692
0.126768
0.126849
0.126935
0.127028
0.127127
0.127235
0.12735
0.127475
0.127609
0.127754
0.12791
0.128077
0.128256
0.128449
0.128655
0.128875
0.12911
0.129361
0.129629
0.129914
0.130217
0.130539
0.130882
0.131246
0.131633
0.12649
0.126552
0.126615
0.12668
0.126748
0.126819
0.126895
0.126976
0.127062
0.127156
0.127256
0.127364
0.12748
0.127605
0.12774
0.127884
0.128039
0.128204
0.128381
0.128569
0.12877
0.128984
0.12921
0.12945
0.129704
0.129973
0.130257
0.130557
0.130873
0.131207
0.126613
0.126673
0.126734
0.126796
0.126861
0.126929
0.127002
0.127079
0.127162
0.127252
0.127348
0.127451
0.127562
0.127681
0.127809
0.127947
0.128093
0.12825
0.128417
0.128594
0.128783
0.128982
0.129193
0.129416
0.129651
0.129898
0.130158
0.130431
0.130716
0.131016
0.126772
0.12683
0.126888
0.126948
0.127011
0.127077
0.127148
0.127223
0.127304
0.12739
0.127484
0.127584
0.127692
0.127808
0.127932
0.128065
0.128206
0.128357
0.128518
0.128688
0.128869
0.129059
0.12926
0.129472
0.129694
0.129928
0.130172
0.130427
0.130693
0.130971
0.126952
0.127008
0.127064
0.127123
0.127184
0.127248
0.127317
0.127391
0.12747
0.127555
0.127646
0.127745
0.127851
0.127964
0.128086
0.128216
0.128354
0.128502
0.128658
0.128824
0.128999
0.129184
0.129379
0.129583
0.129797
0.13002
0.130254
0.130497
0.130751
0.131014
0.127142
0.127196
0.127251
0.127308
0.127367
0.12743
0.127498
0.12757
0.127648
0.127732
0.127822
0.12792
0.128024
0.128137
0.128257
0.128385
0.128522
0.128667
0.128821
0.128984
0.129155
0.129336
0.129526
0.129725
0.129933
0.13015
0.130377
0.130612
0.130856
0.131109
0.127336
0.127388
0.127441
0.127496
0.127554
0.127616
0.127682