/*--------------------------------*- C++ -*----------------------------------*\
| =========                 |                                                 |
| \\      /  F ield         | OpenFOAM: The Open Source CFD Toolbox           |
|  \\    /   O peration     | Version:  2506                                  |
|   \\  /    A nd           | Website:  www.openfoam.com                      |
|    \\/     M anipulation  |                                                 |
\*---------------------------------------------------------------------------*/
FoamFile
{
    version     2.0;
    format      ascii;
    arch        "LSB;label=32;scalar=64";
    class       volScalarField;
    location    "6000";
    object      nut;
}
// * * * * * * * * * * * * * * * * * * * * * * * * * * * * * * * * * * * * * //

dimensions      [0 2 -1 0 0 0 0];

internalField   nonuniform List<scalar> 
40788
(
4.08692e-09
4.11801e-09
4.07832e-09
3.96918e-09
3.86584e-09
3.75362e-09
3.63486e-09
3.51006e-09
3.37915e-09
3.24229e-09
3.09951e-09
2.9508e-09
2.79618e-09
2.63575e-09
2.46928e-09
2.29669e-09
2.11853e-09
1.93589e-09
1.74935e-09
1.55977e-09
1.36769e-09
1.17605e-09
9.8521e-10
8.0175e-10
6.236e-10
4.65472e-10
3.16499e-10
2.07196e-10
1.05599e-10
6.15791e-11
2.9962e-08
2.92411e-08
2.87645e-08
2.83503e-08
2.7944e-08
2.7516e-08
2.70631e-08
2.65811e-08
2.60665e-08
2.55166e-08
2.49294e-08
2.43029e-08
2.36358e-08
2.2926e-08
2.21653e-08
2.13511e-08
2.04882e-08
1.95783e-08
1.86194e-08
1.76047e-08
1.65347e-08
1.54127e-08
1.42399e-08
1.30233e-08
1.17691e-08
1.04926e-08
9.20534e-09
7.92858e-09
6.69963e-09
5.49222e-09
5.43083e-07
5.3049e-07
5.21692e-07
5.15435e-07
5.09365e-07
5.03057e-07
4.96396e-07
4.89277e-07
4.81619e-07
4.73362e-07
4.64455e-07
4.54854e-07
4.44521e-07
4.33406e-07
4.21337e-07
4.0825e-07
3.94227e-07
3.7927e-07
3.63313e-07
3.46184e-07
3.27868e-07
3.0836e-07
2.87662e-07
2.65778e-07
2.42861e-07
2.18938e-07
1.94453e-07
1.6926e-07
1.44805e-07
1.19515e-07
3.42225e-06
3.36452e-06
3.31481e-06
3.28059e-06
3.24931e-06
3.21775e-06
3.1849e-06
3.14993e-06
3.11224e-06
3.07135e-06
3.02689e-06
2.97848e-06
2.9258e-06
2.86845e-06
2.8052e-06
2.73555e-06
2.65986e-06
2.57795e-06
2.48917e-06
2.3921e-06
2.28641e-06
2.17163e-06
2.04738e-06
1.91309e-06
1.76937e-06
1.61542e-06
1.45424e-06
1.28309e-06
1.1136e-06
9.30956e-07
1.04949e-05
1.03757e-05
1.02483e-05
1.01586e-05
1.00835e-05
1.0013e-05
9.94292e-06
9.87035e-06
9.79302e-06
9.70936e-06
9.61798e-06
9.51759e-06
9.40711e-06
9.28511e-06
9.14757e-06
8.99268e-06
8.82129e-06
8.63234e-06
8.42331e-06
8.18899e-06
7.92746e-06
7.63591e-06
7.31159e-06
6.95021e-06
6.55151e-06
6.10837e-06
5.62822e-06
5.09309e-06
4.54436e-06
3.91026e-06
2.11935e-05
2.10342e-05
2.08198e-05
2.06542e-05
2.0522e-05
2.04086e-05
2.03049e-05
2.0204e-05
2.0101e-05
1.99925e-05
1.98756e-05
1.97475e-05
1.96062e-05
1.94488e-05
1.92664e-05
1.90553e-05
1.8818e-05
1.85524e-05
1.82535e-05
1.79103e-05
1.75188e-05
1.70727e-05
1.65652e-05
1.5986e-05
1.5332e-05
1.45837e-05
1.37512e-05
1.27851e-05
1.1766e-05
1.05041e-05
3.38524e-05
3.38249e-05
3.35466e-05
3.32477e-05
3.30181e-05
3.2847e-05
3.27156e-05
3.26098e-05
3.25195e-05
3.24378e-05
3.23589e-05
3.22785e-05
3.21931e-05
3.20994e-05
3.19381e-05
3.1704e-05
3.14373e-05
3.11351e-05
3.07907e-05
3.03844e-05
2.99116e-05
2.93631e-05
2.87287e-05
2.7993e-05
2.7151e-05
2.61729e-05
2.50715e-05
2.3768e-05
2.23803e-05
2.05939e-05
4.83206e-05
4.83792e-05
4.80936e-05
4.76903e-05
4.73359e-05
4.70557e-05
4.68379e-05
4.66674e-05
4.65296e-05
4.6413e-05
4.63091e-05
4.62114e-05
4.6114e-05
4.60114e-05
4.58888e-05
4.57354e-05
4.55526e-05
4.53394e-05
4.50907e-05
4.46788e-05
4.41508e-05
4.35275e-05
4.27952e-05
4.19351e-05
4.09423e-05
3.97801e-05
3.84653e-05
3.69014e-05
3.52383e-05
3.3077e-05
6.46623e-05
6.4766e-05
6.45234e-05
6.40524e-05
6.35651e-05
6.31392e-05
6.27881e-05
6.25058e-05
6.22734e-05
6.20759e-05
6.19036e-05
6.17472e-05
6.15973e-05
6.14461e-05
6.12893e-05
6.1116e-05
6.09139e-05
6.06779e-05
6.04005e-05
6.00514e-05
5.96163e-05
5.89957e-05
5.817e-05
5.7189e-05
5.6049e-05
5.47084e-05
5.31883e-05
5.13843e-05
4.94708e-05
4.70078e-05
8.27433e-05
8.28563e-05
8.26841e-05
8.21754e-05
8.15635e-05
8.09756e-05
8.04601e-05
8.00249e-05
7.96507e-05
7.93239e-05
7.90372e-05
7.87775e-05
7.85312e-05
7.829e-05
7.80485e-05
7.77967e-05
7.75178e-05
7.7201e-05
7.68332e-05
7.64109e-05
7.59046e-05
7.52789e-05
7.45017e-05
7.3399e-05
7.20965e-05
7.05603e-05
6.88141e-05
6.67547e-05
6.45681e-05
6.18126e-05
0.000102371
0.000102484
0.000102311
0.000101754
0.000101051
0.000100338
9.96848e-05
9.90794e-05
9.8529e-05
9.80344e-05
9.75904e-05
9.71796e-05
9.67876e-05
9.64093e-05
9.60333e-05
9.56509e-05
9.52449e-05
9.47991e-05
9.4293e-05
9.37239e-05
9.30613e-05
9.2286e-05
9.13599e-05
9.02316e-05
8.88559e-05
8.71021e-05
8.50935e-05
8.27468e-05
8.02374e-05
7.71662e-05
0.000123271
0.000123347
0.000122754
0.000122057
0.000121364
0.000120713
0.000120113
0.000119389
0.000118689
0.000118043
0.000117428
0.00011683
0.000116252
0.000115689
0.000115127
0.000114562
0.000113978
0.000113355
0.000112665
0.000111895
0.000111016
0.00011001
0.000108832
0.000107472
0.000105828
0.000103919
0.000101599
9.91434e-05
9.61081e-05
9.28795e-05
0.000144983
0.000144698
0.000144037
0.000143262
0.000142465
0.000141693
0.000140963
0.000140279
0.000139635
0.000139025
0.000138319
0.000137557
0.000136808
0.000136032
0.000135243
0.000134445
0.000133635
0.000132786
0.000131864
0.000130846
0.000129701
0.000128405
0.000126909
0.000125209
0.000123192
0.000120914
0.000118138
0.000115231
0.000111559
0.000108432
0.000167327
0.000167045
0.000166349
0.000165502
0.000164604
0.000163711
0.000162846
0.000162017
0.000161225
0.000160465
0.000159731
0.000159011
0.000158267
0.000157315
0.000156305
0.000155241
0.000154164
0.000153043
0.000151843
0.000150532
0.000149074
0.000147439
0.000145573
0.000143466
0.000141006
0.000138248
0.000134935
0.000131431
0.000127056
0.00012335
0.00019067
0.000190389
0.000189663
0.000188749
0.000187755
0.000186741
0.000185738
0.000184759
0.000183809
0.000182885
0.000181982
0.000181093
0.000180207
0.000179313
0.000178223
0.000176907
0.000175536
0.000174106
0.000172585
0.000170937
0.000169121
0.000167102
0.000164819
0.000162256
0.000159298
0.000155994
0.000152084
0.000147909
0.000142781
0.000138238
0.000214994
0.000214714
0.000213962
0.000212986
0.000211899
0.000210768
0.000209626
0.000208493
0.000207376
0.000206277
0.000205193
0.000204117
0.00020304
0.000201951
0.000200834
0.00019941
0.000197734
0.000195968
0.000194092
0.000192068
0.000189852
0.000187405
0.000184662
0.000181597
0.000178096
0.000174196
0.000169638
0.000164745
0.000158823
0.000153342
0.00024029
0.000240011
0.000239235
0.000238203
0.000237028
0.000235781
0.000234502
0.000233212
0.000231923
0.00023064
0.000229363
0.000228086
0.000226801
0.000225498
0.000224162
0.00022272
0.000220749
0.000218637
0.000216379
0.000213945
0.00021129
0.000208373
0.000205127
0.000201519
0.00019743
0.000192891
0.000187639
0.000181989
0.000175234
0.000168777
0.000266554
0.000266275
0.000265478
0.000264393
0.000263134
0.000261776
0.000260361
0.000258914
0.000257451
0.000255978
0.000254499
0.000253009
0.000251502
0.000249968
0.000248392
0.000246758
0.000244585
0.000242126
0.00023947
0.000236598
0.000233469
0.000230044
0.000226253
0.000222059
0.000217338
0.000212119
0.000206128
0.000199681
0.000192055
0.000184601
0.000293787
0.000293505
0.00029269
0.000291556
0.000290218
0.000288752
0.000287204
0.000285601
0.000283962
0.000282296
0.000280607
0.000278895
0.000277154
0.000275374
0.000273543
0.000271642
0.000269269
0.00026646
0.000263392
0.000260059
0.000256427
0.000252459
0.000248082
0.000243262
0.000237867
0.000231924
0.000225149
0.000217865
0.000209325
0.00020086
0.00032199
0.000321705
0.000320872
0.000319693
0.000318281
0.000316711
0.000315033
0.000313276
0.000311461
0.0003096
0.000307698
0.000305757
0.000303772
0.000301735
0.000299633
0.000297449
0.000294851
0.000291672
0.000288175
0.000284362
0.0002802
0.000275658
0.000270662
0.000265176
0.000259063
0.000252354
0.00024475
0.000236586
0.000227089
0.000217592
0.00035117
0.00035088
0.000350031
0.000348809
0.000347326
0.000345657
0.000343852
0.000341944
0.000339954
0.000337897
0.00033578
0.000333605
0.00033137
0.000329066
0.000326682
0.000324201
0.000321381
0.000317796
0.000313851
0.000309538
0.000304827
0.000299685
0.000294036
0.000287848
0.000280976
0.000273458
0.000264979
0.000255894
0.000245391
0.000234841
0.000381332
0.000381036
0.000380171
0.000378909
0.000377359
0.000375594
0.000373667
0.000371611
0.00036945
0.000367198
0.000364865
0.000362453
0.000359962
0.000357385
0.000354709
0.000351919
0.00034889
0.000344864
0.000340448
0.00033562
0.000330341
0.000324576
0.000318247
0.000311323
0.000303654
0.000295286
0.000285888
0.000275837
0.000264282
0.00025265
0.000412484
0.000412181
0.0004113
0.000410001
0.000408387
0.000406531
0.000404486
0.000402286
0.000399956
0.000397511
0.000394962
0.000392313
0.000389564
0.000386708
0.000383734
0.000380626
0.000377363
0.000372896
0.000367994
0.000362637
0.000356774
0.000350366
0.000343332
0.000335643
0.000327143
0.000317886
0.000307524
0.000296466
0.000283809
0.000271066
0.000444635
0.000444323
0.000443426
0.000442092
0.000440417
0.000438475
0.000436315
0.000433975
0.00043148
0.000428845
0.000426083
0.000423197
0.000420188
0.000417051
0.000413773
0.000410341
0.000406729
0.000401906
0.000396514
0.000390615
0.000384153
0.000377086
0.000369326
0.000360846
0.000351482
0.000341301
0.000329934
0.000317829
0.000304023
0.000290137
0.000477792
0.000477471
0.000476559
0.000475191
0.000473458
0.000471433
0.000469164
0.000466688
0.000464031
0.000461211
0.000458237
0.000455117
0.000451849
0.000448429
0.000444846
0.000441084
0.000437117
0.000431919
0.000426029
0.000419577
0.000412503
0.000404761
0.000396256
0.000386963
0.000376707
0.00036557
0.00035316
0.00033997
0.000324969
0.000309909
0.000511965
0.000511634
0.000510706
0.000509306
0.000507519
0.000505413
0.000503039
0.000500432
0.000497618
0.000494616
0.000491436
0.000488083
0.000484559
0.000480857
0.000476967
0.000472873
0.000468547
0.000462958
0.000456558
0.000449543
0.000441844
0.000433412
0.000424145
0.000414018
0.000402846
0.000390726
0.000377239
0.00036293
0.000346693
0.000330429
0.000547162
0.000546821
0.000545878
0.000544446
0.000542606
0.000540425
0.00053795
0.000535216
0.00053225
0.00052907
0.000525687
0.000522106
0.000518328
0.000514347
0.000510151
0.000505724
0.000501038
0.000495043
0.000488119
0.000480528
0.000472191
0.000463055
0.00045301
0.000442031
0.000429921
0.000416793
0.000402199
0.000386743
0.000369231
0.000351738
0.000583391
0.000583039
0.00058208
0.000580619
0.000578729
0.000576475
0.000573903
0.000571047
0.000567934
0.000564582
0.000561001
0.000557197
0.000553169
0.000548912
0.000544412
0.000539654
0.000534605
0.000528188
0.000520726
0.000512546
0.000503558
0.000493703
0.000482864
0.000471016
0.000457948
0.00044379
0.000428063
0.000411435
0.000392616
0.000373875
0.00062066
0.000620298
0.000619323
0.000617832
0.000615895
0.000613571
0.000610906
0.000607933
0.000604678
0.000601159
0.000597385
0.000593363
0.00058909
0.000584561
0.000579762
0.000574675
0.000569265
0.000562401
0.000554389
0.000545606
0.000535952
0.000525363
0.000513713
0.000500979
0.000486934
0.000471728
0.000454846
0.000437027
0.000416875
0.000396871
0.000658977
0.000658602
0.000657611
0.000656092
0.000654109
0.000651719
0.000648965
0.00064588
0.000642488
0.000638807
0.000634847
0.000630612
0.0006261
0.000621305
0.000616211
0.000610798
0.00060503
0.000597685
0.000589115
0.000579714
0.000569378
0.000558038
0.000545559
0.000531921
0.00051688
0.00050061
0.000482553
0.00046353
0.000442022
0.000420749
0.000698345
0.000697958
0.000696951
0.000695404
0.000693378
0.000690925
0.000688086
0.000684893
0.00068137
0.000677533
0.000673392
0.000668951
0.000664207
0.000659151
0.000653767
0.000648034
0.00064191
0.000634045
0.000624905
0.000614871
0.000603833
0.000591724
0.000578397
0.000563838
0.000547783
0.000530433
0.000511185
0.000490946
0.000468068
0.000445526
0.000738768
0.000738368
0.000737346
0.000735773
0.000733705
0.000731192
0.000728272
0.000724976
0.000721327
0.000717341
0.000713025
0.000708384
0.000703414
0.000698105
0.000692439
0.000686391
0.000679913
0.000671483
0.000661758
0.00065107
0.000639311
0.000626413
0.000612218
0.000596718
0.00057963
0.000561185
0.00054073
0.00051927
0.000495011
0.000471207
0.000780245
0.000779836
0.0007788
0.000777202
0.000775093
0.000772523
0.000769526
0.000766133
0.000762363
0.000758233
0.00075375
0.000748916
0.000743727
0.000738171
0.00073223
0.000725873
0.000719045
0.000709996
0.00069966
0.000688297
0.000675797
0.000662088
0.000647004
0.000630543
0.000612403
0.000592847
0.000571172
0.000548486
0.000522842
0.000497789
0.000822778
0.000822362
0.000821312
0.000819689
0.000817543
0.000814918
0.000811849
0.000808362
0.000804478
0.000800211
0.000795567
0.000790548
0.000785147
0.000779353
0.000773143
0.000766484
0.000759308
0.000749563
0.000738589
0.00072653
0.000713266
0.000698725
0.000682731
0.000665288
0.000646077
0.000625395
0.000602487
0.000578573
0.000551543
0.000525259
0.000866365
0.000865943
0.000864881
0.000863236
0.000861054
0.000858377
0.000855239
0.000851664
0.000847671
0.000843273
0.000838475
0.000833278
0.000827675
0.000821649
0.000815178
0.000808224
0.000800688
0.000790134
0.000778509
0.000765735
0.000751688
0.000736294
0.000719366
0.000700921
0.000680617
0.000658795
0.000634643
0.000609501
0.000581086
0.000553593
0.000911003
0.000910576
0.000909503
0.000907837
0.000905621
0.000902895
0.000899692
0.000896034
0.000891938
0.000887416
0.000882472
0.000877105
0.000871306
0.000865058
0.000858334
0.00085109
0.000842741
0.00083165
0.000819376
0.000805874
0.000791024
0.000774754
0.00075687
0.000737401
0.000715985
0.000693008
0.0006676
0.000641232
0.000611438
0.00058276
0.000956687
0.000956255
0.000955172
0.000953486
0.000951238
0.000948467
0.000945202
0.000941466
0.000937273
0.000932634
0.000927551
0.000922022
0.000916036
0.000909574
0.000902605
0.000895074
0.000885725
0.000874079
0.000861145
0.000846899
0.000831225
0.000814058
0.000795195
0.000774681
0.000752133
0.000727987
0.000701314
0.000673721
0.000642556
0.000612718
0.0010034
0.00100297
0.00100188
0.00100017
0.000997896
0.000995082
0.000991761
0.000987951
0.000983667
0.000978918
0.000973704
0.00096802
0.000961856
0.000955188
0.000947979
0.000940164
0.000929719
0.000917408
0.000903774
0.000888758
0.000872238
0.000854151
0.000834286
0.000812705
0.000789006
0.000763678
0.00073573
0.000706916
0.000674391
0.00064342
0.00105114
0.00105071
0.00104961
0.00104789
0.00104558
0.00104273
0.00103935
0.00103548
0.00103111
0.00102625
0.00102092
0.00101509
0.00100875
0.00100189
0.000994444
0.000986339
0.000974647
0.0009616
0.000947215
0.000931397
0.000914004
0.000894972
0.000874082
0.000851412
0.000826543
0.00080002
0.000770791
0.00074076
0.000706888
0.00067481
0.00109989
0.00109946
0.00109835
0.00109661
0.00109428
0.00109139
0.00108797
0.00108403
0.00107958
0.00107463
0.00106918
0.00106321
0.00105671
0.00104965
0.00104198
0.00103275
0.00102035
0.00100657
0.000991405
0.000974752
0.000956457
0.000936452
0.000914512
0.000890732
0.000864675
0.000836946
0.000806431
0.000775189
0.000739985
0.000706826
0.00114962
0.00114919
0.00114807
0.00114632
0.00114397
0.00114105
0.00113758
0.00113358
0.00112906
0.00112402
0.00111846
0.00111236
0.00110571
0.00109846
0.00109055
0.00107968
0.00106669
0.00105222
0.00103626
0.00101875
0.000999521
0.000978518
0.000955502
0.000930591
0.000903329
0.000874384
0.000842579
0.000810133
0.000773617
0.0007394
0.00120032
0.00119988
0.00119876
0.00119699
0.00119462
0.00119167
0.00118816
0.00118411
0.00117953
0.0011744
0.00116874
0.00116252
0.00115572
0.00114828
0.00113954
0.00112729
0.00111362
0.00109844
0.00108169
0.00106329
0.00104311
0.00102108
0.00099697
0.000970908
0.000942426
0.000912255
0.000879161
0.000845519
0.000807711
0.00077246
0.00125194
0.0012515
0.00125037
0.0012486
0.00124621
0.00124323
0.00123969
0.00123559
0.00123095
0.00122575
0.00121999
0.00121365
0.0012067
0.00119907
0.00118844
0.00117547
0.00116107
0.00114515
0.00112758
0.00110829
0.00108714
0.00106406
0.00103883
0.0010116
0.000981879
0.000950478
0.000916096
0.000881267
0.000842194
0.00080593
0.00130446
0.00130401
0.00130288
0.00130109
0.00129869
0.00129569
0.00129212
0.00128798
0.00128328
0.00127801
0.00127217
0.00126572
0.00125861
0.00124976
0.00123772
0.00122408
0.00120895
0.00119225
0.00117384
0.00115364
0.00113149
0.00110735
0.00108097
0.00105256
0.0010216
0.000988963
0.0009533
0.000917297
0.000876985
0.000839729
0.00135783
0.00135737
0.00135623
0.00135444
0.00135203
0.00134901
0.00134541
0.00134124
0.00133649
0.00133116
0.00132523
0.00131866
0.00131117
0.00130019
0.00128734
0.00127302
0.00125715
0.00123965
0.00122037
0.00119923
0.00117606
0.00115084
0.00112331
0.0010937
0.00106149
0.00102762
0.000990685
0.000953521
0.000912004
0.000873776
0.001412
0.00141151
0.00141037
0.00140858
0.00140616
0.00140314
0.00139952
0.00139531
0.00139052
0.00138513
0.0013791
0.00137241
0.0013627
0.00135072
0.00133718
0.00132216
0.00130555
0.00128722
0.00126705
0.00124495
0.00122075
0.00119442
0.00116573
0.00113491
0.00110145
0.00106635
0.00102816
0.000989853
0.000947165
0.000907985
0.00146691
0.0014656
0.00146525
0.00146346
0.00146104
0.00145801
0.00145437
0.00145014
0.0014453
0.00143985
0.00143373
0.00142505
0.00141398
0.00140129
0.0013871
0.00137137
0.001354
0.00133483
0.00131375
0.00129067
0.00126541
0.00123798
0.00120811
0.00117608
0.00114138
0.00110506
0.00106563
0.0010262
0.000982383
0.00094227
0.0015218
0.00151903
0.00152062
0.00151901
0.0015166
0.00151356
0.00150991
0.00150565
0.00150077
0.00149524
0.00148714
0.00147694
0.00146508
0.00145175
0.00143692
0.00142049
0.00140234
0.00138233
0.00136033
0.00133625
0.00130994
0.00128138
0.00125033
0.0012171
0.00118116
0.00114363
0.001103
0.00106247
0.00101757
0.000976543
0.00157561
0.00157239
0.00157378
0.00157393
0.00157274
0.0015697
0.00156604
0.00156175
0.00155614
0.00154857
0.00153924
0.00152828
0.00151584
0.00150193
0.00148646
0.00146933
0.00145042
0.00142956
0.00140664
0.00138157
0.00135418
0.0013245
0.00129228
0.00125785
0.00122069
0.00118198
0.00114017
0.00109857
0.00105263
0.00101072
0.0016296
0.00162605
0.00162662
0.00162663
0.00162604
0.00162399
0.0016204
0.00161534
0.0016087
0.00160034
0.00159043
0.00157901
0.00156611
0.00155166
0.00153558
0.00151777
0.00149808
0.00147639
0.00145254
0.00142647
0.00139802
0.00136722
0.00133383
0.00129822
0.00125986
0.00121998
0.00117703
0.00113439
0.00108748
0.0010447
0.0016837
0.00168013
0.00167997
0.00167913
0.001678
0.00167585
0.00167216
0.00166679
0.00165976
0.00165109
0.00164087
0.00162912
0.00161579
0.00160084
0.00158417
0.00156567
0.00154522
0.00152268
0.0014979
0.00147084
0.00144132
0.0014094
0.00137486
0.00133808
0.00129855
0.00125754
0.0012135
0.00116986
0.00112203
0.0010784
0.00173809
0.00173444
0.00173384
0.00173225
0.00173023
0.00172735
0.00172319
0.00171749
0.00171018
0.00170127
0.00169078
0.00167868
0.00166493
0.00164946
0.00163218
0.00161299
0.00159176
0.00156835
0.00154264
0.00151457
0.00148399
0.00145096
0.00141528
0.00137735
0.00133667
0.00129456
0.00124947
0.00120486
0.00115618
0.00111174
0.00179244
0.0017888
0.001788
0.00178598
0.00178321
0.00177948
0.00177459
0.00176835
0.0017606
0.00175132
0.00174043
0.00172789
0.00171364
0.0016976
0.00167966
0.00165973
0.00163768
0.00161338
0.00158671
0.00155761
0.00152595
0.00149181
0.00145499
0.00141592
0.00137413
0.00133094
0.00128485
0.00123932
0.00118984
0.00114463
0.00184639
0.00184311
0.00184221
0.00183999
0.00183677
0.00183235
0.0018267
0.00181976
0.0018114
0.00180154
0.0017901
0.00177698
0.0017621
0.00174537
0.00172668
0.00170594
0.00168301
0.00165776
0.00163008
0.00159993
0.00156717
0.0015319
0.00149394
0.00145374
0.00141085
0.00136662
0.00131957
0.00127315
0.00122295
0.00117698
0.00190023
0.00189728
0.00189626
0.00189393
0.00189046
0.00188559
0.00187934
0.0018717
0.00186264
0.00185207
0.00183991
0.00182606
0.00181042
0.00179289
0.00177335
0.00175169
0.00172779
0.00170153
0.00167278
0.00164152
0.00160762
0.0015712
0.00153208
0.00149076
0.00144679
0.00140154
0.00135357
0.00130629
0.00125542
0.00120873
0.00195427
0.00195116
0.00194996
0.00194751
0.00194386
0.00193871
0.00193201
0.0019238
0.00191406
0.00190275
0.00188981
0.00187513
0.00185863
0.00184018
0.00181969
0.00179703
0.00177208
0.00174472
0.00171483
0.0016824
0.00164731
0.0016097
0.00156942
0.00152695
0.00148191
0.00143565
0.0013868
0.00133869
0.0012872
0.00123982
0.00200764
0.00200459
0.00200313
0.00200051
0.00199666
0.00199127
0.00198425
0.00197558
0.00196525
0.00195326
0.00193954
0.00192401
0.00190659
0.00188718
0.00186565
0.00184192
0.00181584
0.00178731
0.00175622
0.00172257
0.00168625
0.00164741
0.00160593
0.00156232
0.0015162
0.00146894
0.00141923
0.0013703
0.00131824
0.00127019
0.00205995
0.00205725
0.00205553
0.0020527
0.00204861
0.00204297
0.00203565
0.0020266
0.00201578
0.00200317
0.00198873
0.00197238
0.00195406
0.00193366
0.00191109
0.00188623
0.00185899
0.00182924
0.00179691
0.00176199
0.00172441
0.00168431
0.00164162
0.00159684
0.00154966
0.0015014
0.00145084
0.00140112
0.00134852
0.00129981
0.00211152
0.00210871
0.00210683
0.00210384
0.00209951
0.00209359
0.00208596
0.00207654
0.00206527
0.00205211
0.00203701
0.0020199
0.00200071
0.00197936
0.00195574
0.00192977
0.00190135
0.00187038
0.00183679
0.00180058
0.00176172
0.00172036
0.00167645
0.00163051
0.00158226
0.00153301
0.00148163
0.00143113
0.00137801
0.00132866
0.00216128
0.00215885
0.00215686
0.00215373
0.00214918
0.00214298
0.00213502
0.00212521
0.00211349
0.0020998
0.00208407
0.00206624
0.00204623
0.00202395
0.00199933
0.00197228
0.0019427
0.00191053
0.00187569
0.00183822
0.00179808
0.00175547
0.00171036
0.00166327
0.00161398
0.00156376
0.00151159
0.00146031
0.00140671
0.00135672
0.0022095
0.00220755
0.00220548
0.00220225
0.0021975
0.00219102
0.00218272
0.00217249
0.00216029
0.00214604
0.00212968
0.00211114
0.00209033
0.00206717
0.00204158
0.00201348
0.00198279
0.00194945
0.0019134
0.0018747
0.00183334
0.00178952
0.00174325
0.00169505
0.00164476
0.00159361
0.00154068
0.00148866
0.00143461
0.00138401
0.00225661
0.00225476
0.00225261
0.0022493
0.00224435
0.00223759
0.00222892
0.00221825
0.00220553
0.00219069
0.00217368
0.0021544
0.00213279
0.00210876
0.00208223
0.00205312
0.00202136
0.00198689
0.0019497
0.00190983
0.00186731
0.00182234
0.00177497
0.00172574
0.00167451
0.00162249
0.00156886
0.00151614
0.00146168
0.0014105
0.00230211
0.00230043
0.00229819
0.00229476
0.00228959
0.0022825
0.00227343
0.00226229
0.00224901
0.00223355
0.00221585
0.00219583
0.0021734
0.0021485
0.00212103
0.00209094
0.00205815
0.00202262
0.00198434
0.00194338
0.00189977
0.00185375
0.00180537
0.00175519
0.00170312
0.0016503
0.00159605
0.00154271
0.00148789
0.00143617
0.00234546
0.00234436
0.00234198
0.00233834
0.00233286
0.0023254
0.00231589
0.00230425
0.0022904
0.00227431
0.0022559
0.00223512
0.00221188
0.00218611
0.00215773
0.00212668
0.00209291
0.00205638
0.00201708
0.00197511
0.00193051
0.00188353
0.00183426
0.00178323
0.00173042
0.00167692
0.00162215
0.00156827
0.00151317
0.00146098
0.00238699
0.00238596
0.00238332
0.00237939
0.00237356
0.00236569
0.00235573
0.00234358
0.00232918
0.00231246
0.00229338
0.00227187
0.00224784
0.00222124
0.002192
0.00216005
0.00212536
0.00208789
0.00204767
0.00200478
0.0019593
0.00191147
0.00186143
0.00180968
0.00175627
0.0017022
0.00164703
0.00159272
0.00153744
0.00148488
0.00242548
0.00242413
0.00242114
0.00241691
0.00241075
0.00240249
0.00239212
0.00237953
0.00236462
0.00234736
0.00232768
0.00230551
0.00228078
0.00225344
0.00222341
0.00219065
0.00215513
0.00211684
0.0020758
0.00203211
0.00198587
0.00193734
0.00188665
0.00183434
0.00178046
0.00172597
0.00167053
0.00161592
0.00156057
0.00150776
0.00245845
0.00245732
0.0024541
0.00244966
0.00244328
0.00243477
0.00242411
0.00241118
0.00239591
0.00237822
0.00235807
0.00233537
0.00231008
0.00228212
0.00225144
0.00221801
0.00218181
0.00214283
0.00210111
0.00205678
0.00200994
0.00196086
0.0019097
0.00185697
0.00180279
0.00174805
0.00169249
0.00163773
0.00158245
0.00152952
0.00248484
0.00248402
0.0024809
0.00247651
0.00247013
0.00246156
0.0024508
0.00243772
0.00242224
0.0024043
0.00238384
0.00236079
0.00233509
0.00230669
0.00227555
0.00224163
0.00220491
0.00216543
0.00212323
0.00207844
0.00203118
0.00198174
0.00193029
0.00187734
0.00182303
0.00176821
0.00171271
0.00165797
0.0016029
0.00155001
0.00250384
0.0025036
0.00250092
0.00249687
0.00249073
0.00248231
0.00247163
0.00245858
0.00244307
0.00242504
0.00240445
0.00238122
0.0023553
0.00232665
0.00229523
0.00226101
0.002224
0.00218422
0.00214174
0.0020967
0.00204924
0.00199965
0.00194813
0.00189517
0.00184094
0.00178624
0.00173098
0.00167645
0.00162175
0.00156907
0.00251586
0.00251664
0.00251456
0.00251098
0.0025052
0.00249704
0.00248656
0.00247365
0.00245823
0.00244025
0.00241965
0.00239639
0.00237041
0.00234167
0.00231014
0.00227581
0.00223869
0.00219882
0.00215628
0.00211122
0.00206379
0.00201428
0.00196292
0.00191017
0.00185625
0.00180189
0.00174707
0.00169294
0.00163881
0.00158653
0.00252318
0.00252452
0.00252293
0.00251973
0.00251427
0.00250635
0.00249605
0.0024833
0.002468
0.0024501
0.00242957
0.00240634
0.00238039
0.00235168
0.00232017
0.00228588
0.00224882
0.00220903
0.00216662
0.00212174
0.00207456
0.00202535
0.00197438
0.00192207
0.00186868
0.00181488
0.00176073
0.00170723
0.00165385
0.00160219
0.00252705
0.00252874
0.0025273
0.00252422
0.00251889
0.00251107
0.00250086
0.00248818
0.00247293
0.00245509
0.0024346
0.00241142
0.00238552
0.00235687
0.00232546
0.00229129
0.00225439
0.00221483
0.0021727
0.00212816
0.0020814
0.00203269
0.00198231
0.00193066
0.00187802
0.00182501
0.00177173
0.00171908
0.00166666
0.00161582
0.00252838
0.00252982
0.00252831
0.00252518
0.00251981
0.00251194
0.00250167
0.00248894
0.00247366
0.00245578
0.00243526
0.00241209
0.00238621
0.00235762
0.00232631
0.0022923
0.00225562
0.00221634
0.00217458
0.00213051
0.00208431
0.00203625
0.00198662
0.0019358
0.0018841
0.00183207
0.00177986
0.00172827
0.00167701
0.00162722
0.00252578
0.00252742
0.00252592
0.0025227
0.00251724
0.00250924
0.00249883
0.00248597
0.00247057
0.00245258
0.00243199
0.00240876
0.00238286
0.00235431
0.00232308
0.00228923
0.00225278
0.00221383
0.0021725
0.00212896
0.0020834
0.0020361
0.00198733
0.00193749
0.00188686
0.00183597
0.001785
0.00173464
0.00168472
0.00163617
0.00251878
0.00252092
0.00251955
0.00251632
0.0025108
0.00250271
0.00249218
0.00247919
0.00246366
0.00244556
0.00242488
0.00240158
0.00237567
0.00234714
0.00231602
0.00228233
0.00224614
0.00220755
0.00216668
0.00212371
0.00207885
0.00203238
0.00198456
0.00193578
0.00188633
0.0018367
0.00178709
0.00173811
0.00168967
0.00164253
0.0025076
0.00250959
0.00250838
0.00250524
0.00249978
0.00249168
0.00248112
0.00246809
0.00245252
0.00243438
0.00241368
0.00239039
0.00236452
0.00233608
0.00230511
0.00227164
0.00223577
0.00219759
0.00215724
0.00211492
0.00207083
0.00202524
0.00197844
0.0019308
0.00188261
0.00183431
0.00178615
0.00173865
0.00169179
0.0016462
0.00248991
0.00249255
0.00249157
0.00248857
0.00248323
0.00247526
0.0024648
0.00245187
0.0024364
0.00241837
0.00239778
0.00237464
0.00234895
0.00232074
0.00229005
0.00225695
0.00222151
0.00218386
0.00214415
0.00210257
0.00205934
0.00201474
0.00196905
0.00192262
0.00187576
0.00182888
0.00178223
0.00173629
0.00169109
0.00164715
0.00246607
0.00246874
0.002468
0.00246523
0.00246016
0.00245244
0.00244223
0.00242955
0.00241436
0.00239662
0.00237635
0.00235355
0.00232825
0.00230047
0.00227028
0.00223773
0.00220293
0.002166
0.0021271
0.00208644
0.00204423
0.00200076
0.00195631
0.00191121
0.00186579
0.00182042
0.00177537
0.00173107
0.0016876
0.00164538
0.00243383
0.00243686
0.00243654
0.00243413
0.00242944
0.00242211
0.00241231
0.00240007
0.00238534
0.0023681
0.00234837
0.00232617
0.0023015
0.00227441
0.00224497
0.00221324
0.00217934
0.00214339
0.00210556
0.00206606
0.00202511
0.00198298
0.00193996
0.00189638
0.00185255
0.00180884
0.00176551
0.00172295
0.00168129
0.00164089
0.00239191
0.00239577
0.002396
0.00239404
0.00238983
0.00238305
0.00237381
0.00236219
0.00234814
0.00233164
0.00231271
0.00229135
0.00226761
0.00224151
0.00221313
0.00218255
0.00214986
0.00211522
0.00207878
0.00204075
0.00200135
0.00196085
0.00191954
0.00187773
0.00183572
0.00179387
0.00175243
0.00171178
0.00167207
0.0016336
0.00234039
0.00234425
0.00234491
0.00234348
0.00233988
0.00233378
0.0023253
0.00231451
0.00230138
0.00228587
0.00226801
0.00224782
0.00222532
0.00220056
0.0021736
0.00214452
0.00211343
0.00208047
0.00204579
0.00200961
0.00197213
0.00193362
0.00189435
0.00185463
0.00181475
0.00177503
0.00173575
0.00169723
0.00165966
0.00162331
0.00227584
0.00228036
0.00228162
0.00228081
0.00227794
0.0022727
0.00226517
0.00225545
0.00224349
0.00222927
0.00221281
0.00219412
0.00217323
0.00215018
0.00212504
0.00209788
0.00206881
0.00203795
0.00200548
0.00197157
0.00193644
0.00190033
0.00186352
0.00182627
0.00178888
0.00175166
0.00171486
0.00167878
0.00164363
0.00160965
0.00219772
0.00220268
0.00220462
0.00220456
0.00220257
0.00219836
0.002192
0.00218358
0.00217306
0.00216043
0.00214568
0.00212884
0.00210994
0.002089
0.00206609
0.00204129
0.00201468
0.0019864
0.00195658
0.00192542
0.00189311
0.00185988
0.00182597
0.00179165
0.0017572
0.00172288
0.00168896
0.0016557
0.00162333
0.00159204
0.0021057
0.00211114
0.0021138
0.00211455
0.00211352
0.00211045
0.00210539
0.00209843
0.00208955
0.00207871
0.00206593
0.00205122
0.0020346
0.0020161
0.00199578
0.00197371
0.00194997
0.00192467
0.00189796
0.00187
0.00184097
0.00181108
0.00178056
0.00174965
0.0017186
0.00168766
0.00165707
0.00162708
0.0015979
0.0015697
0.00200291
0.0020087
0.00201195
0.00201341
0.00201323
0.00201122
0.0020074
0.00200184
0.00199454
0.00198548
0.00197467
0.00196212
0.00194785
0.00193188
0.00191427
0.00189509
0.00187441
0.00185235
0.00182902
0.00180458
0.00177918
0.00175301
0.00172628
0.00169921
0.001672
0.0016449
0.00161811
0.00159185
0.00156632
0.00154167
0.0018972
0.00190304
0.00190662
0.00190844
0.00190871
0.0019073
0.00190421
0.00189955
0.00189334
0.00188556
0.00187624
0.00186537