/*--------------------------------*- C++ -*----------------------------------*\
| =========                 |                                                 |
| \\      /  F ield         | OpenFOAM: The Open Source CFD Toolbox           |
|  \\    /   O peration     | Version:  2506                                  |
|   \\  /    A nd           | Website:  www.openfoam.com                      |
|    \\/     M anipulation  |                                                 |
\*---------------------------------------------------------------------------*/
FoamFile
{
    version     2.0;
    format      ascii;
    arch        "LSB;label=32;scalar=64";
    class       volScalarField;
    location    "6000";
    object      omega;
}
// * * * * * * * * * * * * * * * * * * * * * * * * * * * * * * * * * * * * * //

dimensions      [0 0 -1 0 0 0 0];

internalField   nonuniform List<scalar> 
40788
(
2.00867e+06
2.00867e+06
2.00867e+06
2.00867e+06
2.00867e+06
2.00867e+06
2.00867e+06
2.00867e+06
2.00867e+06
2.00866e+06
2.00866e+06
2.00866e+06
2.00866e+06
2.00866e+06
2.00866e+06
2.00865e+06
2.00865e+06
2.00865e+06
2.00865e+06
2.00865e+06
2.00865e+06
2.00864e+06
2.00864e+06
2.00864e+06
2.00864e+06
2.00864e+06
2.00864e+06
2.00863e+06
2.00863e+06
2.00863e+06
343413
342597
342618
342575
342523
342465
342402
342334
342262
342185
342104
342018
341929
341835
341737
341635
341529
341418
341304
341187
341067
340944
340821
340696
340575
340452
340343
340223
340146
340013
119949
119603
119618
119557
119463
119351
119225
119088
118938
118778
118606
118423
118229
118024
117806
117576
117333
117077
116808
116526
116231
115923
115604
115273
114934
114588
114244
113900
113579
113261
62940.1
62783.7
62808.4
62774.8
62689.5
62575.8
62440.8
62287.6
62117.5
61931.1
61728.7
61510.2
61275.3
61023.5
60754
60465.4
60156.9
59827.5
59476.6
59102.3
58703.2
58277.6
57824.3
57341.5
56830.2
56289
55723.3
55134
54535.5
53941.4
41124
41051.3
41091.2
41101.6
41062.6
40990.8
40894.8
40778.5
40643.9
40492.2
40323.7
40138.8
39937.2
39718.4
39482.4
39228.4
38954.7
38659.4
38341.2
37997.7
37626.8
37224.9
36789
36313.4
35796.3
35228.1
34611.9
33931.5
33207.1
32419.3
29845.6
29804.9
29846.1
29884.7
29888.9
29862.9
29813.4
29743.8
29656.4
29552.8
29433.9
29299.9
29151.2
28987.5
28810.8
28621.2
28416.1
28193.4
27951.5
27689.4
27405.1
27094.9
26755.2
26379.3
25963.7
25494.3
24971.8
24365.3
23696.6
22900.9
22934
22910.3
22943
22989.6
23019.2
23026.6
23014
22983.4
22936.8
22875.6
22800.9
22713.2
22612.9
22500.3
22376.9
22243.5
22098.4
21939.7
21766.4
21579.6
21377.7
21157.3
20915.6
20646.3
20346.1
20000.5
19608.8
19136
18600.3
17914.4
18285.7
18276.9
18301.1
18344.2
18384
18411.2
18423.9
18422.2
18407.1
18379.8
18341.1
18291.5
18231.7
18161.9
18082.6
17994.6
17897.4
17790
17671.6
17543.4
17404.7
17254
17089.8
16906.7
16701.7
16462.5
16187.1
15842.9
15442.7
14897.3
14978.2
14981.1
15000.8
15037.4
15078.4
15114.5
15141.8
15158.7
15165.6
15162.9
15151.1
15130.6
15101.9
15065.4
15021.3
14969.9
14911.4
14845.3
14771.4
14689.4
14599.6
14501.6
14394.9
14276.8
14144.4
13987.8
13804.6
13566.9
13282
12868.6
12535
12545.4
12564.2
12595.6
12633.8
12671.7
12705.2
12732.6
12753.1
12766.7
12773.5
12773.7
12767.8
12756
12738.5
12715.3
12686.8
12652.8
12613.3
12568.1
12517.3
12460.7
12398.3
12328.8
12250.8
12156.9
12044.9
11891.1
11699.7
11399.2
10679
10693.3
10713.6
10741.7
10775.9
10811.8
10846.3
10878.1
10905.8
10929
10947.6
10961.7
10971.5
10977.2
10979
10976.9
10970.9
10961.2
10947.9
10930.9
10910.5
10886.6
10859.3
10827.6
10791.4
10745.3
10688.3
10599.8
10483.6
10276.1
9235.88
9251.69
9272.38
9298.15
9328.78
9362.05
9395.68
9428.34
9458.96
9486.9
9512.24
9534.93
9554.87
9572.42
9587.64
9600.54
9611.08
9619.34
9625.62
9629.97
9632.73
9633.98
9634.09
9632.31
9629.16
9620.53
9606.4
9569.9
9514.35
9382.8
8089.06
8104.5
8123.99
8147.5
8175.24
8206.03
8238.33
8270.65
8302.27
8332.64
8361.59
8389.05
8415.02
8440.01
8464.06
8487.28
8509.52
8530.81
8551.46
8571.68
8591.84
8612.23
8633.35
8654.91
8677.59
8698.62
8718.39
8723.89
8717.22
8649.36
7158.96
7172.99
7190.96
7212.39
7237.54
7265.83
7296.28
7327.72
7359.46
7391.01
7421.96
7452.24
7481.93
7511.29
7540.73
7570.6
7600.8
7631.27
7662.25
7694.04
7727.09
7761.81
7798.85
7838.3
7880.97
7925.24
7971.64
8010.71
8043.37
8029.49
6391.38
6404.06
6420.47
6440
6462.83
6488.72
6517.1
6547.11
6578.15
6609.78
6641.63
6673.56
6705.58
6737.73
6770.41
6804.24
6839.56
6876.22
6914.4
6954.43
6996.81
7042.08
7090.98
7143.94
7201.89
7264.14
7331.37
7397.03
7461.27
7492.44
5748.85
5760.3
5775.22
5793.01
5813.77
5837.43
5863.69
5891.97
5921.79
5952.78
5984.6
6017.12
6050.31
6084.19
6118.95
6155.04
6193.41
6233.99
6276.94
6322.61
6371.54
6424.34
6481.85
6544.77
6614.16
6690.08
6773.39
6859.9
6949.4
7017.78
5204.31
5214.66
5228.23
5244.45
5263.35
5284.97
5309.18
5335.61
5363.9
5393.77
5424.94
5457.27
5490.74
5525.37
5561.3
5598.72
5638.7
5681.52
5727.38
5776.67
5829.95
5887.91
5951.44
6021.47
6099.18
6185.22
6280.64
6383.16
6492.48
6590.88
4737.84
4747.22
4759.55
4774.36
4791.62
4811.38
4833.65
4858.22
4884.84
4913.29
4943.38
4974.99
5008.1
5042.73
5079.02
5117.1
5157.72
5201.57
5248.96
5300.33
5356.25
5417.48
5484.99
5559.83
5643.32
5736.56
5840.86
5955.35
6079.92
6202.08
4334.47
4342.97
4354.2
4367.74
4383.52
4401.62
4422.09
4444.84
4469.74
4496.63
4525.37
4555.89
4588.18
4622.27
4658.3
4696.4
4737.02
4781.07
4828.98
4881.24
4938.48
5001.5
5071.33
5149.14
5236.36
5334.44
5444.89
5568.02
5704.01
5844.54
3982.73
3990.45
4000.68
4013.08
4027.55
4044.14
4062.97
4084.01
4107.2
4132.46
4159.71
4188.9
4220.05
4253.21
4288.52
4326.11
4366.26
4409.92
4457.6
4509.87
4567.4
4631.06
4701.9
4781.2
4870.49
4971.45
5085.84
5214.83
5358.98
5513.31
3673.74
3680.75
3690.09
3701.47
3714.75
3730
3747.32
3766.76
3788.3
3811.93
3837.62
3865.35
3895.15
3927.11
3961.37
3998.07
4037.37
4080.2
4127.11
4178.73
4235.79
4299.18
4370
4449.62
4539.6
4641.86
4758.34
4890.89
5040.48
5204.72
3400.49
3406.86
3415.4
3425.85
3438.07
3452.11
3468.06
3486.02
3506.01
3528.06
3552.17
3578.36
3606.7
3637.28
3670.25
3705.78
3743.97
3785.64
3831.39
3881.88
3937.88
4000.32
4070.32
4149.3
4238.9
4341.18
4458.22
4592.41
4745.13
4916.01
3157.4
3163.2
3171.01
3180.62
3191.89
3204.83
3219.55
3236.15
3254.69
3275.21
3297.78
3322.43
3349.24
3378.34
3409.87
3444.02
3480.91
3521.18
3565.49
3614.51
3669.02
3729.98
3798.55
3876.16
3964.52
4065.76
4182.12
4316.38
4470.28
4645.04
2939.97
2945.26
2952.41
2961.27
2971.66
2983.62
2997.22
3012.58
3029.76
3048.86
3069.93
3093.06
3118.34
3145.89
3175.89
3208.54
3243.99
3282.7
3325.37
3372.67
3425.39
3484.51
3551.18
3626.87
3713.29
3812.67
3927.33
4060.35
4213.81
4390.15
2744.55
2749.38
2755.94
2764.1
2773.71
2784.77
2797.36
2811.58
2827.52
2845.27
2864.93
2886.58
2910.34
2936.35
2964.78
2995.85
3029.74
3066.8
3107.7
3153.12
3203.85
3260.85
3325.29
3398.63
3482.61
3579.47
3691.63
3822.34
3974.02
4150
2568.13
2572.54
2578.56
2586.09
2594.98
2605.23
2616.9
2630.08
2644.87
2661.38
2679.7
2699.94
2722.23
2746.71
2773.57
2803.03
2835.29
2870.64
2909.71
2953.16
3001.76
3056.47
3118.45
3189.14
3270.28
3364.13
3473.14
3600.71
3749.5
3923.52
2408.22
2412.25
2417.78
2424.73
2432.97
2442.47
2453.3
2465.54
2479.28
2494.64
2511.71
2530.62
2551.49
2574.49
2599.8
2627.64
2658.24
2691.86
2729.06
2770.48
2816.89
2869.21
2928.57
2996.41
3074.44
3164.91
3270.29
3394.05
3539.05
3709.79
2262.72
2266.41
2271.5
2277.92
2285.56
2294.39
2304.46
2315.83
2328.61
2342.9
2358.81
2376.46
2395.99
2417.56
2441.36
2467.62
2496.56
2528.45
2563.78
2603.16
2647.34
2697.21
2753.88
2818.75
2893.49
2980.32
3081.72
3201.16
3341.66
3508.07
2129.9
2133.28
2137.96
2143.91
2151
2159.2
2168.57
2179.15
2191.05
2204.35
2219.19
2235.66
2253.93
2274.15
2296.5
2321.21
2348.52
2378.69
2412.17
2449.53
2491.49
2538.91
2592.86
2654.69
2726.04
2809.07
2906.23
3020.98
3156.45
3317.69
2008.26
2011.37
2015.68
2021.19
2027.77
2035.41
2044.13
2053.99
2065.07
2077.48
2091.31
2106.7
2123.77
2142.7
2163.67
2186.9
2212.63
2241.12
2272.78
2308.16
2347.93
2392.92
2444.15
2502.94
2570.85
2650
2742.79
2852.6
2982.64
3138.06
1896.54
1899.4
1903.39
1908.49
1914.6
1921.72
1929.85
1939.04
1949.38
1960.95
1973.87
1988.24
2004.2
2021.92
2041.58
2063.39
2087.59
2114.46
2144.36
2177.81
2215.44
2258.04
2306.61
2362.37
2426.87
2502.11
2590.44
2695.17
2819.52
2968.64
1793.66
1796.3
1799.99
1804.71
1810.4
1817.03
1824.61
1833.2
1842.85
1853.66
1865.72
1879.15
1894.08
1910.67
1929.09
1949.55
1972.3
1997.6
2025.8
2057.38
2092.94
2133.24
2179.19
2232
2293.11
2364.48
2448.35
2547.94
2666.43
2808.94
1698.69
1701.13
1704.54
1708.93
1714.22
1720.4
1727.48
1735.5
1744.52
1754.63
1765.9
1778.46
1792.43
1807.96
1825.22
1844.41
1865.77
1889.58
1916.16
1945.94
1979.51
2017.56
2060.99
2110.92
2168.74
2236.29
2315.76
2410.2
2522.78
2658.48
1610.83
1613.08
1616.23
1620.31
1625.24
1631
1637.62
1645.12
1653.56
1663.01
1673.56
1685.31
1698.39
1712.93
1729.1
1747.09
1767.15
1789.55
1814.58
1842.65
1874.3
1910.21
1951.2
1998.35
2052.97
2116.8
2191.95
2281.31
2387.99
2516.8
1529.36
1531.44
1534.36
1538.15
1542.74
1548.12
1554.31
1561.33
1569.23
1578.07
1587.95
1598.96
1611.21
1624.83
1639.98
1656.86
1675.71
1696.77
1720.31
1746.75
1776.58
1810.44
1849.1
1893.57
1945.11
2005.35
2076.29
2160.69
2261.54
2383.47
1453.67
1455.59
1458.3
1461.82
1466.1
1471.13
1476.92
1483.49
1490.89
1499.18
1508.44
1518.76
1530.23
1543
1557.21
1573.04
1590.77
1610.56
1632.71
1657.6
1685.7
1717.6
1754.03
1795.95
1844.53
1901.31
1968.19
2047.76
2142.91
2258.05
1383.22
1385
1387.52
1390.79
1394.78
1399.48
1404.9
1411.06
1418
1425.77
1434.46
1444.13
1454.89
1466.87
1480.2
1495.05
1511.73
1530.33
1551.17
1574.6
1601.06
1631.1
1665.42
1704.9
1750.65
1804.13
1867.1
1942.02
2031.64
2140.14
1317.53
1319.18
1321.52
1324.57
1328.3
1332.69
1337.76
1343.54
1350.05
1357.35
1365.49
1374.57
1384.68
1395.92
1408.43
1422.39
1438.07
1455.57
1475.18
1497.23
1522.14
1550.43
1582.74
1619.91
1662.97
1713.29
1772.52
1842.98
1927.27
2029.32
1256.18
1257.71
1259.89
1262.74
1266.22
1270.33
1275.08
1280.5
1286.61
1293.46
1301.12
1309.64
1319.13
1329.69
1341.45
1354.59
1369.33
1385.8
1404.26
1425.01
1448.46
1475.09
1505.51
1540.49
1581
1628.31
1684
1750.19
1829.37
1925.19
1198.8
1200.23
1202.26
1204.91
1208.17
1212.02
1216.47
1221.55
1227.29
1233.73
1240.93
1248.94
1257.86
1267.79
1278.85
1291.25
1305.12
1320.61
1337.99
1357.53
1379.6
1404.67
1433.3
1466.21
1504.31
1548.78
1601.09
1663.23
1737.52
1827.39
1145.07
1146.39
1148.28
1150.76
1153.8
1157.41
1161.59
1166.37
1171.76
1177.82
1184.58
1192.12
1200.51
1209.85
1220.29
1231.99
1245.04
1259.63
1275.99
1294.39
1315.17
1338.77
1365.71
1396.67
1432.5
1474.29
1523.4
1581.69
1651.35
1735.53
1094.67
1095.9
1097.67
1099.99
1102.84
1106.22
1110.14
1114.63
1119.7
1125.4
1131.77
1138.86
1146.77
1155.58
1165.44
1176.47
1188.77
1202.51
1217.92
1235.25
1254.83
1277.05
1302.4
1331.53
1365.21
1404.46
1450.57
1505.22
1570.48
1649.26
1047.35
1048.5
1050.15
1052.32
1054.99
1058.16
1061.85
1066.07
1070.84
1076.2
1082.2
1088.89
1096.35
1104.68
1114.01
1124.41
1136
1148.96
1163.48
1179.81
1198.25
1219.18
1243.05
1270.44
1302.11
1338.98
1382.24
1433.47
1494.57
1568.24
1002.87
1003.95
1005.49
1007.53
1010.03
1013.01
1016.47
1020.44
1024.94
1029.99
1035.65
1041.96
1049.01
1056.9
1065.72
1075.53
1086.47
1098.69
1112.38
1127.78
1145.16
1164.87
1187.34
1213.12
1242.89
1277.52
1318.11
1366.11
1423.3
1492.16
961.011
962.027
963.479
965.385
967.737
970.537
973.796
977.532
981.767
986.533
991.873
997.844
1004.53
1012.01
1020.33
1029.6
1039.92
1051.46
1064.38
1078.9
1095.28
1113.85
1135.02
1159.28
1187.27
1219.8
1257.88
1302.86
1356.37
1420.69
921.588
922.557
923.919
925.709
927.918
930.552
933.62
937.14
941.136
945.637
950.69
956.358
962.704
969.774
977.639
986.392
996.145
1007.04
1019.23
1032.93
1048.39
1065.89
1085.83
1108.67
1134.99
1165.55
1201.28
1243.42
1293.48
1353.55
884.43
885.361
886.641
888.324
890.4
892.879
895.771
899.093
902.868
907.13
911.928
917.311
923.32
930.006
937.441
945.714
954.931
965.221
976.739
989.673
1004.25
1020.76
1039.55
1061.06
1085.82
1114.53
1148.06
1187.54
1234.37
1290.45
849.376
850.264
851.488
853.073
855.026
857.362
860.092
863.232
866.809
870.857
875.415
880.516
886.2
892.524
899.555
907.378
916.093
925.819
936.703
948.921
962.687
978.264
995.978
1016.23
1039.54
1066.52
1097.99
1134.98
1178.79
1231.15
816.27
817.111
818.293
819.804
821.653
823.861
826.443
829.419
832.814
836.658
840.975
845.802
851.179
857.162
863.815
871.217
879.461
888.66
898.95
910.497
923.499
938.204
954.913
974.001
995.936
1021.31
1050.85
1085.52
1126.51
1175.38
784.971
785.768
786.9
788.353
790.124
792.223
794.674
797.5
800.721
804.361
808.448
813.015
818.104
823.768
830.066
837.073
844.877
853.582
863.317
874.235
886.524
900.412
916.18
934.176
954.834
978.694
1006.44
1038.94
1077.29
1122.93
755.365
756.117
757.192
758.583
760.28
762.289
764.625
767.31
770.366
773.815
777.685
782.011
786.832
792.197
798.165
804.802
812.194
820.437
829.652
839.983
851.604
864.729
879.617
896.593
916.057
938.508
964.575
995.052
1030.95
1073.56
727.346
728.054
729.068
730.388
732.008
733.927
736.156
738.711
741.614
744.888
748.559
752.662
757.233
762.321
767.979
774.272
781.278
789.09
797.819
807.6
818.597
831.007
845.074
861.097
879.445
900.58
925.081
953.672
987.281
1027.08
700.816
701.48
702.435
703.681
705.216
707.042
709.165
711.598
714.359
717.469
720.957
724.852
729.192
734.02
739.39
745.361
752.007
759.415
767.69
776.958
787.371
799.113
812.412
827.543
844.85
864.757
887.796
914.631
946.111
983.303
675.684
676.306
677.203
678.377
679.827
681.557
683.573
685.885
688.51
691.467
694.781
698.482
702.606
707.192
712.292
717.962
724.27
731.301
739.15
747.937
757.804
768.922
781.502
795.801
812.135
830.895
852.573
877.772
907.271
942.038
651.865
652.448
653.292
654.396
655.764
657.398
659.307
661.5
663.993
666.802
669.951
673.469
677.388
681.747
686.592
691.978
697.971
704.646
712.097
720.433
729.787
740.321
752.228
765.748
781.174
798.865
819.272
842.948
870.605
903.121
629.284
629.83
630.624
631.664
632.952
634.495
636.299
638.376
640.739
643.405
646.395
649.737
653.461
657.603
662.208
667.327
673.02
679.361
686.436
694.348
703.222
713.206
724.484
737.275
751.851
768.543
787.765
810.023
835.968
866.394
607.874
608.384
609.129
610.108
611.323
612.778
614.482
616.446
618.683
621.21
624.047
627.22
630.756
634.692
639.068
643.932
649.342
655.367
662.086
669.599
678.019
687.488
698.173
710.281
724.061
739.819
757.935
778.872
803.224
831.711
587.567
588.045
588.744
589.665
590.809
592.182
593.79
595.646
597.763
600.156
602.846
605.855
609.212
612.949
617.106
621.727
626.867
632.591
638.974
646.107
654.1
663.081
673.209
684.674
697.708
712.591
729.674
749.379
772.248
798.936
568.303
568.751
569.407
570.272
571.349
572.644
574.162
575.916
577.918
580.183
582.731
585.584
588.768
592.315
596.262
600.651
605.533
610.97
617.033
623.806
631.393
639.913
649.515
660.374
672.706
686.768
702.884
721.438
742.927
767.943
550.028
550.445
551.061
551.874
552.887
554.107
555.541
557.197
559.09
561.234
563.647
566.35
569.37
572.735
576.48
580.647
585.283
590.446
596.203
602.634
609.834
617.918
627.021
637.308
648.977
662.268
677.476
694.954
715.155
738.616
532.685
533.076
533.653
534.416
535.37
536.52
537.872
539.437
541.227
543.255
545.54
548.101
550.964
554.155
557.708
561.662
566.063
570.965
576.43
582.534
589.367
597.034
605.664
615.409
626.453
639.016
653.371
669.84
688.837
710.849
516.231
516.596
517.136
517.853
518.751
519.834
521.11
522.588
524.28
526.199
528.362
530.788
533.5
536.526
539.896
543.648
547.824
552.475
557.662
563.454
569.936
577.208
585.388
594.618
605.069
616.944
630.495
646.017
663.887
684.548
500.623
500.962
501.468
502.141
502.986
504.007
505.21
506.606
508.205
510.02
512.067
514.365
516.935
519.803
522.998
526.556
530.518
534.931
539.851
545.346
551.494
558.389
566.14
574.881
584.77
595.994
608.786
623.415
640.227
659.625
485.821
486.136
486.61
487.243
488.037
488.999
490.134
491.452
492.963
494.679
496.615
498.79
501.225
503.942
506.971
510.345
514.101
518.287
522.954
528.165
533.994
540.529
547.873
556.148
565.503
576.111
588.184
601.972
617.789
636.003
471.789
472.084
472.528
473.122
473.87
474.775
475.845
477.088
478.514
480.136
481.968
484.026
486.33
488.904
491.775
494.972
498.534
502.502
506.927
511.868
517.394
523.586
530.541
538.374
547.221
557.243
568.636
581.628
596.508
613.611
458.497
458.772
459.188
459.745
460.446
461.298
462.306
463.477
464.823
466.355
468.086
470.033
472.214
474.651
477.37
480.4
483.775
487.537
491.732
496.415
501.651
507.517
514.102
521.514
529.878
539.344
550.093
562.333
576.329
592.386
445.909
446.163
446.55
447.071
447.729
448.529
449.476
450.58
451.85
453.295
454.931
456.772
458.835
461.143
463.718
466.588
469.787
473.352
477.328
481.766
486.726
492.282
498.516
505.527
513.433
522.372
532.509
544.038
557.199
572.272
433.978
434.211
434.571
435.057
435.672
436.423
437.315
438.354
439.551
440.916
442.462
444.203
446.156
448.34
450.779
453.499
456.53
459.909
463.677
467.882
472.582
477.842
483.742
490.374
497.845
506.283
515.842
526.698
539.07
553.216
422.647
422.862
423.196
423.65
424.228
424.933
425.772
426.753
427.883
429.173
430.634
432.282
434.131
436.2
438.511
441.089
443.963
447.167
450.738
454.724
459.177
464.159
469.743
476.014
483.074
491.038
500.049
510.268
521.897
535.168
411.855
412.058
412.371
412.798
413.342
414.007
414.8
415.726
416.795
418.016
419.4
420.962
422.715
424.678
426.871
429.317
432.043
435.082
438.47
442.25
446.47
451.19
456.476
462.408
469.079
476.596
485.089
494.708
505.634
518.082
401.552
401.745
402.043
402.448
402.963
403.593
404.345
405.223
406.238
407.397
408.712
410.195
411.861
413.726
415.81
418.134
420.725
423.612
426.829
430.416
434.42
438.894
443.901
449.514
455.819
462.915
470.921
479.974
490.239
501.912
391.692
391.878
392.164
392.551
393.042
393.643
394.359
395.196
396.163
397.267
398.52
399.933
401.52
403.297
405.281
407.495
409.961
412.708
415.768
419.177
422.98
427.226
431.972
437.288
443.25
449.952
457.501
466.022
475.667
486.612
382.236
382.417
382.693
383.066
383.537
384.113
384.798
385.599
386.524
387.58
388.777
390.128
391.645
393.342
395.237
397.35
399.703
402.323
405.238
408.485
412.103
416.137
420.643
425.682
431.327
437.661
444.783
452.808
461.872
472.136
373.15
373.328
373.595
373.955
374.409
374.963
375.622
376.392
377.279
378.293
379.442
380.737
382.191
383.817
385.632
387.654
389.905
392.409
395.193
398.291
401.739
405.581
409.865
414.648
419.999
425.992
432.718
440.281
448.804
458.434
364.4
364.574
364.835
365.184
365.623
366.158
366.794
367.536
368.391
369.367
370.473
371.719
373.116
374.679
376.422
378.363
380.521
382.92
385.586
388.548
391.842
395.506
399.587
404.136
409.216
414.895
421.255
428.39
436.412
445.453
355.95
356.124
356.379
356.719
357.146
357.665
358.28
358.998
359.824
360.767
361.834
363.036
364.383
365.889
367.567
369.434
371.509
373.813
376.371
379.21
382.363
385.866
389.76
394.095
398.926
404.316
410.339
417.08
424.64
433.136
347.766
347.94
348.191
348.524
348.941
349.446
350.045
350.741
351.542
352.456
353.489
354.651
355.954
357.408
359.028
360.829
362.828
365.047
367.506
370.233
373.258
376.613
380.338
384.476
389.079
394.204
399.917
406.296
413.43
421.425
339.807
339.982
340.233
340.562
340.971
341.466
342.05
342.729
343.509
344.397
345.401
346.529
347.792
349.201
350.769
352.51
354.441
356.581
358.952
361.577
364.483
367.704
371.273
375.231
379.625
384.506
389.935
395.981
402.725
410.259
332.028
332.208
332.46
332.787
333.192
333.68
334.254
334.92
335.684
336.551
337.53
338.63
339.858
341.227
342.749
344.438
346.308
348.378
350.668
353.2
355.999
359.096
362.522
366.315
370.516
375.173
380.341
386.082
392.465
399.577
324.375
324.561
324.818
325.147
325.553
326.038
326.607
327.264
328.017
328.869
329.83
330.906
332.108
333.444
334.927
336.57
338.387
340.395
342.613
345.061
347.764
350.748
354.043
357.684
361.708
366.159
371.086
376.544
382.598
389.32
316.777
316.974
317.24
317.577
317.987
318.476
319.045
319.701
320.449
321.294
322.243
323.304
324.486
325.798
327.251
328.857
330.63
332.585
334.741
337.116
339.732
342.615
345.792
349.294
353.156
357.417
362.122
367.321
373.069
379.434
309.147
309.36
309.641
309.991
310.414
310.912
311.491
312.153
312.904
313.751
314.698
315.754
316.926
318.223
319.656
321.237
322.977
324.891
326.996
329.31
331.853
334.647
337.719
341.097
344.812
348.9
353.402
358.362
363.83
369.864
301.366
301.602
301.905
302.277
302.72
303.239
303.835
304.514
305.281
306.14
307.098
308.161
309.336
310.633
312.061
313.629
315.351
317.24
319.309
321.577
324.062
326.784
329.767
333.037
336.623
340.557
344.875
349.617
354.828
360.56
293.272
293.541
293.876
294.28
294.755
295.305
295.933
296.643
297.439
298.326
299.311
300.398
301.595
302.91
304.35
305.926
307.649
309.531
311.585
313.827
316.274
318.945
321.86
325.044
328.522
332.323
336.48
341.028
346.008
351.466
284.659
284.969
285.346
285.794
286.314
286.91
287.585
288.344
289.19
290.127
291.161
292.296
293.538
294.894
296.371
297.979
299.728
301.629
303.695
305.938
308.374
311.021
313.896
317.021
320.419
324.116
328.14
332.524
337.303
342.518
275.282
275.633
276.058
276.56
277.14
277.801
278.546
279.378
280.302
281.32
282.436
283.645
284.958
286.381
287.923
289.593
291.401
293.355
295.466
297.745
300.205
302.863
305.733
308.836
312.191
315.821
319.75
324.007
328.623
333.634
265.472
265.84
266.285
266.81
267.416
268.107
268.885
269.754
270.718
271.782
272.951
274.228
275.619
277.13
278.766
280.534
282.442
284.493
286.688
289.041
291.566
294.276
297.187
300.313
303.671
307.28
311.162
315.341
319.842
324.698
255.583
255.959
256.41
256.938
257.546
258.237
259.015
259.882
260.844
261.905
263.073
264.36
265.771
267.309
268.982
270.795
272.757
274.873
277.15
279.594
282.216
285.025
288.031
291.232
294.645
298.288
302.179
306.338
310.787
315.55
245.378
245.775
246.246
246.796
247.426
248.138
248.935
249.822
250.801
251.877
253.055
254.343
255.748
257.275
258.933
260.73
262.673
264.778
267.06
269.526
272.182
275.038
278.104
281.379
284.871
288.592
292.554
296.763
301.228
305.971
234.71
235.131
235.628
236.204
236.862
237.602
238.428
239.343
240.349
241.452
242.656
243.966
245.39
246.932
248.601
250.405
252.351
254.449
256.713
259.151
261.775
264.595
267.626
270.89
274.391
278.138
282.14
286.399
290.911
295.688
223.622
224.054
224.567
225.161
225.839
226.601
227.45
228.388
229.42
230.548
231.776
233.111
234.556
236.12
237.807
239.626
241.584
243.691
245.956
248.391
251.005
253.81
256.818
260.042
263.496
267.189
271.134
275.345
279.834
284.606
212.145
212.575
213.09
213.691
214.377
215.15
216.013
216.966
218.013
219.158
220.404
221.755
223.217
224.796
226.497
228.329
230.297
232.412
234.681
237.115
239.723
242.518
245.51
248.711
252.134
255.79
259.689
263.845
268.267
272.964
200.022
200.469
201.001
201.62
202.325
203.118
204.001
204.976
206.044
207.21
208.477
209.848
211.329
212.924
214.64
216.483
218.46
220.58
222.85
225.281
227.882
230.663
233.637
236.813
240.204
243.821
247.677
251.78
256.143
260.774
186.854
187.35
187.931
188.599
189.354
190.197
191.128
192.151
193.267
194.479
195.79
197.204
198.725
200.357
202.106
203.978
205.979
208.117
210.4
212.837
215.437
218.209
221.166
224.317
227.674
231.25
235.054
239.1
243.397
247.954
172.4
172.954
173.598
174.333
175.159
176.075
177.082
178.182
179.375
180.665
182.053
183.542
185.135
186.838
188.654
190.588
192.646
194.835
197.161
199.632
202.258
205.046
208.007
211.151
214.489
218.032
221.793
225.781
230.009
234.486
156.612
157.22
157.925
158.727
159.625
160.618
161.708
162.894
164.178
165.561
167.044
168.63
170.321
172.121
174.033
176.061
178.21
180.484
182.891
185.435
188.125
190.968
193.972
197.147
200.501
204.045
207.789
211.744
215.921
220.331
139.713
140.36
141.11
141.962
142.915
143.969
145.125
146.383
147.743
149.207
150.776
152.452
154.237
156.133
158.145
160.274
162.525
164.901
167.408
170.05
172.833
175.763
178.846
182.089
185.501
189.087
192.859
196.823
200.989
205.367
122.281
122.938
123.701
124.569
125.541
126.618
127.8
129.087
130.481
131.983
133.596
135.319
137.158
139.113
141.187
143.385
145.709
148.163
150.75
153.476
156.344
159.359
162.527
165.851
169.338
172.993
176.821
180.83
185.026
189.415
105.201
105.835
106.571
107.41
108.352
109.396
110.545
111.799
113.16
114.631
116.214
117.911
119.726
121.663
123.724
125.913
128.235
130.694
133.293
136.037
138.931
141.978
145.182
148.548
152.08
155.781
159.656
163.707
167.939
172.355
89.4228
90.0049
90.6801
91.4487
92.3113
93.2692
94.3243
95.4786
96.7349
98.0963
99.5661
101.148
102.847
104.667
106.613
108.69
110.902
113.257
115.758
118.411
121.221
124.193
127.333
130.643
134.129
137.793
141.639
145.669
149.885
154.288
75.6379
76.151
76.7432
77.4151
78.1676
79.0025
79.922
80.9289
82.0264
83.2184
84.5092
85.9034
87.4064
89.0236
90.7612
92.6254
94.6227
96.7601
99.0443
101.482
104.081
106.847
109.787
112.907
116.211
119.705
123.393
127.277
131.359
135.641
64.1096
64.5468
65.0479
65.6132
66.2441
66.9422
67.71
68.5504
69.4667
70.4631
71.544
72.7145
73.9801
75.3471
76.8219
78.4115
80.1235
81.9657
83.9461
86.0732
88.3553
90.801
93.4186
96.2161
99.2012
102.381
105.761
109.347
113.142
117.151
54.6954
55.0591
55.473
55.9373
56.4529
57.0212
57.6446
58.3255
59.0673
59.8736
60.7488
61.6975
62.7253
63.8379
65.0418
66.3439
67.7517
69.273
70.9164
72.6907
74.605
76.6689
78.8919
81.2837
83.8539
86.6115
89.5654
92.7233
96.0923
99.6782
46.9376
47.2485
47.5966
47.9824
48.407
48.8716
49.378
49.9286
50.5258
51.173
51.8737
52.6321
53.4528
54.3413
55.3031
56.3446
57.4727
58.6946
60.0182
61.452
63.0047
64.6858
66.505
68.4722
70.5979
72.8922
75.3654
78.0274
80.8876
83.9548
40.1245
40.4088
40.7271
41.0781
41.4611
41.8758
42.322
42.8002
43.3115
43.8578
44.4417
45.0668
45.7371
46.4575
47.2332
48.0698
48.9734
49.9504
51.0078
52.1528
53.3934
54.7381
56.1957
57.7756
59.4877
61.342
63.3489
65.5188
67.8621
70.3891
34.015
34.2561
34.5279
34.8298
35.1613
35.5224
35.9133
36.3347
36.7875
37.2728
37.7922
38.3473
38.9402
39.5733
40.2492
40.9708
41.7407
42.5626
43.4409
44.3815
45.3914
46.4785
47.6513
48.9183
50.2888
51.7719
53.3773
55.1148
56.9944
59.0265
29.3509
29.5112
29.6955
29.9041
30.1374
30.3965
30.6829
30.9981
31.344
31.7223
32.1348
32.583
33.0684
33.5927
34.1575
34.7651
35.4178
36.118
36.8683
37.6717
38.5316
39.4519
40.4369
41.4911
42.6194
43.8285
45.1267
46.5233
48.028
49.6509
26.0244
26.1339
26.2603
26.4036
26.5646
26.7438
26.9423
27.1614
27.4024
27.6671
27.9573
28.2752
28.6229
29.0028
29.4176
29.8705
30.3651
30.9051
31.494
32.1346
32.8296
33.5812
34.392
35.2643
36.2003
37.2026
38.275
39.4225
40.6507
41.9652
23.5642
23.6429
23.7335
23.8362
23.9513
24.0795
24.2216
24.3784
24.551
24.7408
24.9491
25.1777
25.4283
25.703
26.0039
26.3337
26.6948
27.0903
27.5233
27.997
28.5147
29.0798
29.6962
30.368
31.0996
31.8945
32.7553
33.6845
34.6837
35.7537
21.6923
21.7515
21.8193
21.896
21.9818
22.0773
22.183
22.2996
22.428
22.5691
22.724
22.894
23.0804
23.2848
23.5089
23.7545
24.0237
24.3187
24.6418
24.9957
25.3832
25.807
26.2703
26.7765
27.3288
27.9309
28.5861
29.298
30.0701
30.9066
20.2365
20.2827
20.3352
20.3945
20.4608
20.5345
20.6161
20.7061
20.8052
20.9141
21.0337
21.1649
21.3088
21.4667
21.6396
21.8292
22.0368
22.2643
22.5132
22.7856
23.0836
23.4094
23.7652
24.1537
24.5774
25.039
25.5415
26.0877
26.6806
27.3234
19.0857
19.1227
19.1647
19.2119
19.2647
19.3233
19.3881
19.4597
19.5387
19.6255
19.7209
19.8257
19.9408
20.067
20.2053
20.3569
20.523
20.7048
20.9036
21.121
21.3584
21.6175
21.9001
22.208
22.543
22.9073
23.3028
23.7319
24.1966
24.6996
18.1646
18.1951
18.2295
18.2681
18.3111
18.3588
18.4117
18.4702
18.5347
18.6059
18.6841
18.7703
18.8649
18.9689
19.083
19.2082
19.3453
19.4954
19.6595
19.8389
20.0346
20.2479
20.4801
20.7326
21.0068
21.3041
21.626
21.9741
22.3499
22.7553
17.4206
17.4462
17.475
17.5071
17.5429
17.5826
17.6267
17.6755
17.7294
17.789
17.8548
17.9273
18.0072
18.095
18.1916
18.2976
18.4139
18.5413
18.6807
18.8329
18.999
19.1798
19.3765
19.59
19.8214
20.0718
20.3423
20.6339
20.9477
21.2851
16.8156
16.8374
16.8618
16.889
16.9192
16.9529
16.9902
17.0317
17.0777
17.1287
17.185
17.2473
17.3161
17.392
17.4755
17.5674
17.6683
17.7789
17.9
18.0323
18.1766
18.3337
18.5045
18.6896
18.89
19.1065
19.3399
19.5909
19.8604
20.1493
16.3219
16.3407
16.3616
16.3849
16.4108
16.4396
16.4718
16.5076
16.5474
16.5917
16.6408
16.6953
16.7557
16.8223
16.896
16.977
17.0662
17.1641
17.2714
17.3886
17.5165
17.6557
17.807
17.9708
18.148
18.3391
18.5448
18.7657
19.0023
19.2553
15.9181
15.9345
15.9525
15.9726
15.995
16.0201
16.0481
16.0794
16.1144
16.1535
16.197
16.2454
16.2991
16.3587
16.4246
16.4974
16.5775
16.6656
16.7621
16.8677
16.9829
17.1083
17.2445
17.3919
17.5512
17.7228
17.9072
18.1049
18.3163
18.542
15.5878
15.602
15.6177
15.6352
15.6547
15.6767
15.7013
15.7291
15.7602
15.7951
15.8341
15.8777
15.9263
15.9803
16.0402
16.1064
16.1795
16.2598
16.348
16.4445
16.5497
16.6642
16.7885
16.923
17.0681
17.2243
17.392
17.5715
17.763
17.9671
15.3181
15.3304
15.344
15.3593
15.3764
15.3957
15.4176
15.4424
15.4704
15.5019
15.5374
15.5772
15.6216
15.6712
15.7263
15.7874
15.8548
15.929
16.0106
16.0998
16.1971
16.303
16.4178
16.5419
16.6757
16.8196
16.9738
17.1385
17.3142
17.5009
15.0985
15.1092
15.121
15.1342
15.1493
15.1664
15.186
15.2083
15.2337
15.2625
15.2951
15.3317
15.3729
15.4189
15.4702
15.5271
15.5901
15.6595
15.7357
15.8191
15.91
16.0089
16.1161
16.2318
16.3564
16.4902
16.6334
16.7862
16.9488
17.1214
14.9206
14.9297
14.9398
14.9514
14.9646
14.9799
14.9975
15.0178
15.041
15.0676
15.0978
15.132
15.1705
15.2137
15.2619
15.3155
15.3749
15.4404
15.5123
15.591
15.6768
15.77
15.8709
15.9798
16.0969
16.2225
16.3566
16.4995
16.6513
16.8121
14.7773
14.785
14.7936
14.8036
14.8152
14.8288
14.8448
14.8633
14.8848
14.9095
14.9378
14.9699
15.0063
15.0472
15.093
15.144
15.2005
15.2628
15.3313
15.4062
15.4878
15.5764
15.6722
15.7755
15.8864
16.0051
16.1317
16.2663
16.4091
16.56
14.6628
14.669
14.6762
14.6848
14.695
14.7072
14.7216
14.7387
14.7586
14.7818
14.8085
14.839
14.8737
14.9128
14.9566
15.0055
15.0597
15.1195
15.1852
15.2571
15.3353
15.4202
15.5119
15.6105
15.7163
15.8294
15.9497