/*--------------------------------*- C++ -*----------------------------------*\
| =========                 |                                                 |
| \\      /  F ield         | OpenFOAM: The Open Source CFD Toolbox           |
|  \\    /   O peration     | Version:  2506                                  |
|   \\  /    A nd           | Website:  www.openfoam.com                      |
|    \\/     M anipulation  |                                                 |
\*---------------------------------------------------------------------------*/
FoamFile
{
    version     2.0;
    format      ascii;
    arch        "LSB;label=32;scalar=64";
    class       volScalarField;
    location    "6000";
    object      p;
}
// * * * * * * * * * * * * * * * * * * * * * * * * * * * * * * * * * * * * * //

dimensions      [0 2 -2 0 0 0 0];

internalField   nonuniform List<scalar> 
40788
(
17.3548
17.5834
17.6013
17.7482
17.9311
18.1635
18.4443
18.7722
19.1476
19.5705
20.0411
20.5601
21.1281
21.7459
22.4144
23.1348
23.9081
24.736
25.6187
26.558
27.5533
28.6077
29.7158
30.8857
32.0968
33.3771
34.6561
36.0364
37.286
38.7741
17.3552
17.5833
17.6014
17.7483
17.9312
18.1635
18.4443
18.7723
19.1477
19.5706
20.0413
20.5602
21.1282
21.746
22.4146
23.1349
23.9083
24.7362
25.6189
26.5583
27.5536
28.608
29.7161
30.8861
32.0972
33.3775
34.6566
36.0369
37.2865
38.7747
17.3556
17.5832
17.6014
17.7483
17.9313
18.1636
18.4444
18.7724
19.1478
19.5707
20.0414
20.5604
21.1284
21.7462
22.4148
23.1352
23.9086
24.7365
25.6192
26.5586
27.5539
28.6084
29.7165
30.8866
32.0977
33.3781
34.6572
36.0375
37.2872
38.7754
17.3561
17.5828
17.6015
17.7484
17.9314
18.1638
18.4446
18.7726
19.148
19.5709
20.0416
20.5606
21.1286
21.7465
22.4151
23.1355
23.9089
24.7368
25.6196
26.559
27.5544
28.6089
29.7171
30.8871
32.0983
33.3787
34.6579
36.0383
37.288
38.7762
17.3567
17.5822
17.6016
17.7486
17.9315
18.1639
18.4448
18.7728
19.1482
19.5712
20.0419
20.5609
21.1289
21.7468
22.4155
23.1359
23.9094
24.7373
25.6201
26.5596
27.555
28.6095
29.7178
30.8879
32.0992
33.3797
34.6589
36.0394
37.2891
38.7774
17.3575
17.5814
17.6016
17.7487
17.9317
18.1642
18.445
18.7731
19.1486
19.5715
20.0423
20.5614
21.1294
21.7474
22.416
23.1365
23.91
24.738
25.6209
26.5605
27.556
28.6106
29.7189
30.8892
32.1006
33.3811
34.6605
36.0411
37.2908
38.7793
17.3585
17.5804
17.6016
17.7488
17.9319
18.1644
18.4454
18.7735
19.149
19.572
20.0428
20.5619
21.13
21.748
22.4168
23.1373
23.9109
24.739
25.6219
26.5616
27.5572
28.6119
29.7204
30.8907
32.1023
33.3831
34.6626
36.0434
37.2933
38.7819
17.3596
17.5792
17.6016
17.7489
17.9321
18.1647
18.4457
18.7739
19.1494
19.5725
20.0434
20.5626
21.1307
21.7488
22.4176
23.1382
23.9119
24.74
25.6231
26.5628
27.5585
28.6134
29.722
30.8926
32.1043
33.3853
34.665
36.0461
37.2962
38.7852
17.3608
17.5779
17.6015
17.749
17.9323
18.165
18.446
18.7743
19.1499
19.573
20.044
20.5632
21.1315
21.7496
22.4185
23.1391
23.9129
24.7412
25.6243
26.5642
27.56
28.615
29.7237
30.8945
32.1064
33.3876
34.6676
36.049
37.2994
38.7888
17.3621
17.5765
17.6014
17.749
17.9324
18.1652
18.4464
18.7747
19.1504
19.5736
20.0446
20.5639
21.1322
21.7504
22.4193
23.1401
23.914
24.7423
25.6255
26.5655
27.5614
28.6165
29.7254
30.8963
32.1084
33.3899
34.6701
36.0518
37.3026
38.7924
17.3635
17.5749
17.6013
17.749
17.9324
18.1654
18.4466
18.775
19.1508
19.5741
20.0452
20.5646
21.1329
21.7512
22.4202
23.141
23.915
24.7434
25.6267
26.5668
27.5628
28.618
29.727
30.898
32.1103
33.3919
34.6724
36.0544
37.3057
38.7958
17.3649
17.5732
17.601
17.7489
17.9325
18.1655
18.4469
18.7753
19.1512
19.5746
20.0457
20.5652
21.1336
21.752
22.421
23.1419
23.916
24.7445
25.6279
26.568
27.5641
28.6194
29.7285
30.8996
32.1119
33.3937
34.6744
36.0566
37.3083
38.7988
17.3664
17.5713
17.6008
17.7488
17.9325
18.1656
18.447
18.7756
19.1516
19.575
20.0462
20.5657
21.1343
21.7527
22.4218
23.1428
23.9169
24.7454
25.6289
26.569
27.5652
28.6205
29.7297
30.9008
32.1132
33.3951
34.6759
36.0583
37.3103
38.801
17.3679
17.5693
17.6004
17.7486
17.9324
18.1656
18.4472
18.7758
19.1519
19.5753
20.0466
20.5662
21.1348
21.7533
22.4225
23.1435
23.9176
24.7462
25.6297
26.5699
27.5661
28.6214
29.7306
30.9017
32.1142
33.396
34.6768
36.0592
37.3116
38.8022
17.3694
17.5671
17.6
17.7483
17.9322
18.1656
18.4472
18.7759
19.1521
19.5756
20.047
20.5666
21.1353
21.7538
22.423
23.1441
23.9183
24.7469
25.6304
26.5706
27.5668
28.6221
29.7312
30.9023
32.1147
33.3963
34.6772
36.0594
37.3122
38.8024
17.371
17.5649
17.5995
17.748
17.932
18.1655
18.4472
18.776
19.1522
19.5758
20.0472
20.567
21.1356
21.7542
22.4234
23.1445
23.9187
24.7474
25.6309
26.571
27.5672
28.6224
29.7315
30.9024
32.1147
33.3961
34.677
36.0589
37.312
38.8016
17.3725
17.5625
17.599
17.7476
17.9317
18.1653
18.4471
18.776
19.1522
19.5759
20.0474
20.5672
21.1359
21.7545
22.4237
23.1448
23.919
24.7477
25.6311
26.5712
27.5673
28.6224
29.7313
30.9021
32.1141
33.3953
34.676
36.0575
37.3108
38.7996
17.374
17.5599
17.5983
17.7471
17.9313
18.165
18.4469
18.7759
19.1522
19.576
20.0475
20.5673
21.136
21.7546
22.4239
23.145
23.9191
24.7477
25.6311
26.5712
27.5671
28.6221
29.7308
30.9012
32.113
33.3938
34.6742
36.0552
37.3087
38.7965
17.3755
17.5573
17.5976
17.7465
17.9309
18.1647
18.4466
18.7756
19.152
19.5758
20.0474
20.5672
21.136
21.7546
22.4239
23.1449
23.919
24.7476
25.6309
26.5708
27.5665
28.6213
29.7297
30.8999
32.1113
33.3916
34.6716
36.0518
37.3055
38.792
17.3769
17.5545
17.5968
17.7457
17.9303
18.1642
18.4462
18.7753
19.1518
19.5756
20.0472
20.5671
21.1359
21.7544
22.4237
23.1447
23.9187
24.7472
25.6303
26.57
27.5656
28.6201
29.7282
30.8979
32.1089
33.3885
34.6681
36.0474
37.3011
38.7861
17.3783
17.5516
17.5959
17.7449
17.9296
18.1636
18.4457
18.7749
19.1514
19.5753
20.0469
20.5667
21.1355
21.7541
22.4233
23.1442
23.9182
24.7465
25.6294
26.5689
27.5642
28.6184
29.7261
30.8953
32.1057
33.3846
34.6636
36.0418
37.2953
38.7786
17.3796
17.5486
17.5949
17.744
17.9288
18.1629
18.4451
18.7743
19.1509
19.5748
20.0464
20.5663
21.135
21.7536
22.4227
23.1435
23.9173
24.7454
25.6282
26.5675
27.5624
28.6161
29.7234
30.892
32.1017
33.3797
34.658
36.0349
37.2882
38.7694
17.3808
17.5454
17.5937
17.7429
17.9279
18.1621
18.4444
18.7736
19.1502
19.5741
20.0457
20.5656
21.1343
21.7528
22.4219
23.1426
23.9162
24.7441
25.6266
26.5655
27.5601
28.6134
29.72
30.8879
32.0969
33.3739
34.6513
36.0267
37.2797
38.7584
17.3819
17.542
17.5925
17.7417
17.9269
18.1612
18.4435
18.7727
19.1493
19.5733
20.0449
20.5647
21.1334
21.7518
22.4208
23.1414
23.9148
24.7424
25.6246
26.5632
27.5573
28.61
29.716
30.8831
32.0912
33.367
34.6433
36.017
37.2695
38.7454
17.383
17.5386
17.5911
17.7404
17.9257
18.1601
18.4424
18.7717
19.1483
19.5723
20.0439
20.5637
21.1323
21.7506
22.4194
23.1398
23.913
24.7403
25.6222
26.5603
27.5539
28.606
29.7113
30.8774
32.0845
33.3589
34.6341
36.0057
37.2576
38.7304
17.3838
17.5349
17.5895
17.7389
17.9243
18.1588
18.4412
18.7705
19.1472
19.5711
20.0426
20.5624
21.1309
21.7491
22.4178
23.138
23.9109
24.7379
25.6193
26.5569
27.55
28.6013
29.7057
30.8708
32.0767
33.3496
34.6234
35.9929
37.2439
38.7131
17.3846
17.5311
17.5878
17.7372
17.9228
18.1574
18.4398
18.7692
19.1458
19.5697
20.0412
20.5608
21.1292
21.7473
22.4158
23.1358
23.9084
24.735
25.6159
26.553
27.5453
28.5959
29.6993
30.8632
32.0678
33.339
34.6112
35.9782
37.2282
38.6935
17.3852
17.5272
17.5859
17.7354
17.9211
18.1557
18.4382
18.7676
19.1442
19.568
20.0395
20.559
21.1273
21.7452
22.4135
23.1332
23.9055
24.7316
25.612
26.5484
27.54
28.5896
29.6921
30.8546
32.0578
33.327
34.5975
35.9616
37.2104
38.6714
17.3856
17.523
17.5838
17.7333
17.9192
18.1539
18.4364
18.7658
19.1423
19.5661
20.0375
20.5569
21.125
21.7427
22.4108
23.1302
23.9021
24.7277
25.6075
26.5432
27.534
28.5826
29.6838
30.8448
32.0464
33.3135
34.5821
35.9431
37.1905
38.6466
17.3858
17.5187
17.5816
17.731
17.9171
18.1519
18.4344
18.7638
19.1403
19.564
20.0352
20.5545
21.1225
21.7399
22.4077
23.1267
23.8982
24.7232
25.6024
26.5373
27.5271
28.5746
29.6745
30.8339
32.0337
33.2984
34.5648
35.9225
37.1682
38.619
17.3859
17.5141
17.5791
17.7285
17.9147
18.1496
18.4321
18.7615
19.1379
19.5616
20.0327
20.5518
21.1195
21.7367
22.4041
23.1228
23.8937
24.7181
25.5966
26.5306
27.5194
28.5656
29.6641
30.8217
32.0195
33.2816
34.5457
35.8995
37.1434
38.5885
17.3857
17.5094
17.5764
17.7258
17.9121
18.1471
18.4296
18.7589
19.1353
19.5588
20.0298
20.5487
21.1162
21.7331
22.4001
23.1184
23.8888
24.7124
25.5901
26.5232
27.5108
28.5556
29.6525
30.8081
32.0038
33.263
34.5245
35.8742
37.116
38.5548
17.3852
17.5044
17.5734
17.7228
17.9093
18.1443
18.4268
18.756
19.1323
19.5557
20.0265
20.5452
21.1124
21.729
22.3956
23.1134
23.8832
24.7061
25.5828
26.5148
27.5012
28.5445
29.6396
30.7931
31.9864
33.2426
34.5011
35.8464
37.0858
38.5177
17.3844
17.4992
17.5702
17.7195
17.9061
18.1412
18.4237
18.7529
19.1291
19.5523
20.0229
20.5413
21.1082
21.7244
22.3906
23.1078
23.8769
24.6989
25.5747
26.5055
27.4906
28.5322
29.6254
30.7765
31.9672
33.22
34.4755
35.8159
37.0527
38.4772
17.3834
17.4937
17.5667
17.7159
17.9027
18.1378
18.4202
18.7494
19.1254
19.5485
20.0188
20.537
21.1036
21.7193
22.385
23.1016
23.8699
24.691
25.5657
26.4952
27.4788
28.5186
29.6097
30.7583
31.9462
33.1954
34.4474
35.7826
37.0164
38.433
17.382
17.488
17.5629
17.7119
17.8989
18.134
18.4164
18.7455
19.1214
19.5442
20.0143
20.5322
21.0984
21.7136
22.3788
23.0947
23.8622
24.6822
25.5557
26.4839
27.4658
28.5037
29.5925
30.7383
31.9231
33.1684
34.4167
35.7463
36.9768
38.3849
17.3803
17.482
17.5587
17.7077
17.8948
18.1299
18.4123
18.7412
19.1169
19.5396
20.0094
20.5269
21.0926
21.7074
22.3719
23.0871
23.8536
24.6725
25.5447
26.4714
27.4515
28.4872
29.5736
30.7164
31.898
33.139
34.3833
35.7068
36.9337
38.3328
17.3783
17.4756
17.5542
17.703
17.8903
18.1254
18.4077
18.7365
19.112
19.5344
20.0039
20.521
21.0862
21.7004
22.3643
23.0787
23.844
24.6618
25.5326
26.4576
27.4358
28.4693
29.553
30.6925
31.8706
33.107
34.347
35.664
36.887
38.2763
17.3758
17.4689
17.5493
17.698
17.8853
18.1205
18.4027
18.7313
19.1066
19.5287
19.9979
20.5145
21.0793
21.6928
22.3559
23.0693
23.8336
24.65
25.5193
26.4425
27.4187
28.4496
29.5305
30.6665
31.8407
33.0723
34.3076
35.6177
36.8364
38.2154
17.3728
17.4619
17.5439
17.6925
17.88
18.1151
18.3972
18.7256
19.1007
19.5225
19.9912
20.5074
21.0716
21.6844
22.3467
23.0591
23.8221
24.6371
25.5048
26.4261
27.3999
28.4282
29.506
30.6382
31.8084
33.0346
34.2649
35.5676
36.7816
38.1497
17.3694
17.4545
17.5382
17.6865
17.8741
18.1092
18.3912
18.7194
19.0942
19.5156
19.984
20.4996
21.0631
21.6752
22.3366
23.0478
23.8094
24.623
25.4889
26.4081
27.3795
28.4048
29.4793
30.6076
31.7733
32.9939
34.2188
35.5136
36.7226
38.079
17.3655
17.4467
17.5319
17.6801
17.8678
18.1028
18.3846
18.7127
19.0871
19.5082
19.976
20.4911
21.0539
21.6652
22.3255
23.0353
23.7956
24.6075
25.4715
26.3884
27.3572
28.3795
29.4504
30.5743
31.7353
32.95
34.1691
35.4555
36.6589
38.0032
17.3611
17.4384
17.5251
17.6731
17.8609
18.0958
18.3775
18.7053
19.0794
19.5
19.9673
20.4817
21.0438
21.6542
22.3132
23.0218
23.7806
24.5907
25.4526
26.3671
27.3331
28.352
29.419
30.5383
31.6943
32.9026
34.1156
35.3931
36.5905
37.9219
17.3561
17.4297
17.5178
17.6656
17.8534
18.0883
18.3697
18.6972
19.071
19.4911
19.9578
20.4716
21.0328
21.6421
22.2998
23.007
23.7641
24.5724
25.432
26.3439
27.3068
28.3221
29.3851
30.4995
31.6501
32.8516
34.0579
35.3261
36.5171
37.8349
17.3505
17.4204
17.5099
17.6574
17.8453
18.08
18.3613
18.6885
19.0618
19.4814
19.9475
20.4605
21.0207
21.6288
22.2852
22.9908
23.7462
24.5524
25.4097
26.3187
27.2784
28.2899
29.3485
30.4576
31.6024
32.7967
33.996
35.2543
36.4383
37.7419
17.3442
17.4106
17.5013
17.6486
17.8365
18.0711
18.3521
18.6789
19.0518
19.4709
19.9363
20.4484
21.0075
21.6143
22.2693
22.9733
23.7268
24.5307
25.3854
26.2914
27.2476
28.255
29.3089
30.4124
31.5511
32.7378
33.9296
35.1774
36.3539
37.6427
17.3373
17.4002
17.4921
17.6391
17.827
18.0615
18.3422
18.6686
19.041
19.4594
19.924
20.4351
20.993
21.5985
22.252
22.9542
23.7056
24.5072
25.3591
26.2619
27.2144
28.2173
29.2662
30.3638
31.496
32.6745
33.8584
35.0951
36.2636
37.5368
17.3295
17.3891
17.4821
17.6289
17.8167
18.051
18.3314
18.6574
19.0292
19.4469
19.9106
20.4206
20.9773
21.5813
22.2332
22.9335
23.6827
24.4817
25.3307
26.23
27.1785
28.1767
29.2203
30.3115
31.4368
32.6068
33.7822
35.0073
36.1671
37.4242
17.321
17.3773
17.4714
17.6178
17.8056
18.0396
18.3197
18.6452
19.0164
19.4332
19.8959
20.4048
20.9602
21.5627
22.2127
22.911
23.6579
24.4542
25.2999
26.1955
27.1397
28.133
29.1709
30.2554
31.3733
32.5342
33.7007
34.9136
36.0641
37.3043
17.3114
17.3648
17.4598
17.606
17.7936
18.0273
18.307
18.6319
19.0024
19.4183
19.88
20.3876
20.9416
21.5424
22.1906
22.8867
23.631
24.4244
25.2667
26.1583
27.098
28.0859
29.1178
30.1952
31.3052
32.4567
33.6136
34.8138
35.9543
37.1769
17.3008
17.3514
17.4473
17.5931
17.7806
18.014
18.2932
18.6175
18.9872
19.4022
19.8627
20.369
20.9215
21.5205
22.1667
22.8604
23.602
24.3921
25.2308
26.1182
27.053
28.0353
29.0608
30.1306
31.2324
32.3738
33.5206
34.7074
35.8373
37.0417
17.2893
17.3372
17.4338
17.5793
17.7666
17.9996
18.2783
18.6019
18.9707
19.3847
19.844
20.3489
20.8997
21.4968
22.1408
22.8319
23.5706
24.3574
25.1922
26.0751
27.0047
27.981
28.9997
30.0615
31.1545
32.2853
33.4215
34.5942
35.7128
36.8982
17.2765
17.322
17.4192
17.5644
17.7514
17.9841
18.2621
18.585
18.9529
19.3657
19.8237
20.3271
20.8761
21.4713
22.1128
22.8012
23.5368
24.32
25.1506
26.0287
26.9528
27.9227
28.9342
29.9875
31.0713
32.1909
33.3158
34.4739
35.5804
36.7462
17.2626
17.3058
17.4035
17.5483
17.735
17.9673
18.2447
18.5667
18.9336
19.3453
19.8019
20.3036
20.8507
21.4436
22.0826
22.7681
23.5004
24.2796
25.1058
25.9788
26.897
27.8602
28.864
29.9084
30.9824
32.0904
33.2033
34.3462
35.4396
36.5852
17.2475
17.2886
17.3866
17.531
17.7174
17.9491
18.2258
18.547
18.9128
19.3232
19.7783
20.2782
20.8233
21.4138
22.0501
22.7325
23.4611
24.2363
25.0577
25.9252
26.8373
27.7933
28.789
29.824
30.8876
31.9833
33.0836
34.2105
35.2903
36.4148
17.231
17.2701
17.3683
17.5124
17.6984
17.9296
18.2055
18.5258
18.8904
19.2994
19.7528
20.2509
20.7937
21.3817
22.0151
22.6941
23.4189
24.1897
25.0061
25.8678
26.7732
27.7216
28.7088
29.7339
30.7866
31.8693
32.9564
34.0666
35.1318
36.2346
17.2131
17.2504
17.3487
17.4924
17.6779
17.9085
18.1836
18.5028
18.8662
19.2737
19.7254
20.2214
20.7619
21.3472
21.9774
22.6529
23.3736
24.1396
24.9507
25.8062
26.7047
27.645
28.6231
29.6377
30.6789
31.7482
32.8213
33.9142
34.9638
36.0442
17.1936
17.2292
17.3276
17.4708
17.6559
17.8858
18.16
18.4781
18.8401
19.246
19.6958
20.1896
20.7276
21.31
21.9369
22.6085
23.3248
24.0859
24.8912
25.7403
26.6313
27.5632
28.5317
29.5353
30.5644
31.6195
32.6778
33.7527
34.7858
35.8432
17.1725
17.2067
17.3049
17.4477
17.6322
17.8613
18.1346
18.4515
18.812
19.2162
19.664
20.1554
20.6907
21.2699
21.8933
22.5608
23.2725
24.0283
24.8276
25.6697
26.5529
27.4758
28.4342
29.4262
30.4425
31.4828
32.5256
33.5817
34.5975
35.6309
17.1497
17.1825
17.2805
17.4228
17.6067
17.835
18.1072
18.4228
18.7818
19.1841
19.6297
20.1186
20.651
21.2269
21.8465
22.5097
23.2164
23.9665
24.7594
25.5942
26.4691
27.3825
28.3303
29.3101
30.313
31.3378
32.3643
33.4009
34.3982
35.4071
17.125
17.1566
17.2543
17.3961
17.5793
17.8067
18.0777
18.3919
18.7492
19.1496
19.5928
20.079
20.6083
21.1807
21.7962
22.4548
23.1563
23.9004
24.6865
25.5135
26.3796
27.283
28.2196
29.1867
30.1755
31.184
32.1934
33.2097
34.1876
35.1712
17.0984
17.1289
17.2262
17.3674
17.5498
17.7762
18.0461
18.3588
18.7142
19.1124
19.5531
20.0365
20.5624
21.131
21.7422
22.3959
23.0918
23.8296
24.6084
25.4273
26.2841
27.177
28.1018
29.0554
30.0294
31.021
32.0125
33.0077
33.9652
34.9226
17.0696
17.0992
17.196
17.3366
17.5182
17.7435
18.012
18.3231
18.6766
19.0724
19.5105
19.9908
20.5132
21.0777
21.6843
22.3328
23.0227
23.7538
24.525
25.3352
26.1823
27.0641
27.9765
28.916
29.8745
30.8484
31.8211
32.7944
33.7305
34.6609
17.0386
17.0673
17.1635
17.3035
17.4842
17.7084
17.9754
18.2847
18.6361
19.0295
19.4647
19.9417
20.4603
21.0206
21.6223
22.2651
22.9488
23.6728
24.4359
25.237
26.0737
26.9439
27.8432
28.768
29.7103
30.6657
31.6187
32.5694
33.4828
34.3855
17.0053
17.0332
17.1287
17.268
17.4477
17.6706
17.9361
18.2435
18.5927
18.9834
19.4156
19.889
20.4036
20.9593
21.5558
22.1928
22.8698
23.5862
24.3408
25.1322
25.9581
26.816
27.7016
28.611
29.5362
30.4725
31.4049
32.332
33.2218
34.0959
16.9693
16.9967
17.0914
17.2299
17.4086
17.6301
17.8939
18.1993
18.546
18.9339
19.3628
19.8325
20.3428
20.8936
21.4846
22.1153
22.7853
23.4936
24.2392
25.0205
25.835
26.68
27.5513
28.4445
29.3519
30.2681
31.179
32.0818
32.9468
33.7914
16.9306
16.9575
17.0513
17.189
17.3665
17.5866
17.8486
18.1518
18.4959
18.8808
19.3062
19.7719
20.2777
20.8233
21.4084
22.0325
22.6949
23.3949
24.131
24.9015
25.704
26.5355
27.3917
28.268
29.1568
30.0522
30.9407
31.8182
32.6573
33.4716
16.889
16.9155
17.0083
17.1451
17.3214
17.5399
17.7999
18.1008
18.4422
18.8238
19.2455
19.7069
20.2079
20.748
21.3268
21.9439
22.5985
23.2895
24.0155
24.7748
25.5647
26.382
27.2224
28.0811
28.9504
29.8242
30.6893
31.5407
32.3528
33.1359
16.8442
16.8704
16.9622
17.0981
17.2731
17.4898
17.7478
18.0461
18.3845
18.7627
19.1804
19.6373
20.1331
20.6674
21.2396
21.8493
22.4955
23.1771
23.8926
24.64
25.4166
26.2191
27.043
27.8832
28.7323
29.5835
30.4244
31.2487
32.0327
32.7836
16.7963
16.8222
16.9128
17.0477
17.2212
17.4361
17.6918
17.9875
18.3227
18.6973
19.1107
19.5628
20.0531
20.5812
21.1464
21.7482
22.3856
23.0573
23.7617
24.4966
25.2593
26.0463
26.8529
27.6739
28.5019
29.3297
30.1453
30.9416
31.6964
32.4142
16.7449
16.7705
16.86
16.9937
17.1657
17.3785
17.6318
17.9246
18.2565
18.6271
19.0361
19.4831
19.9675
20.489
21.0469
21.6404
22.2684
22.9297
23.6223
24.3442
25.0923
25.863
26.6516
27.4526
28.2586
29.0621
29.8515
30.6188
31.3433
32.0272
16.6898
16.7151
16.8033
16.9358
17.1062
17.3169
17.5676
17.8574
18.1856
18.5521
18.9563
19.3978
19.8761
20.3906
20.9407
21.5254
22.1436
22.7938
23.4742
24.1823
24.9151
25.6688
26.4386
27.2187
28.0018
28.7802
29.5423
30.2798
30.9729
31.6218
16.6308
16.6557
16.7427
16.8738
17.0425
17.2509
17.4989
17.7853
18.1098
18.4718
18.8709
19.3066
19.7784
20.2856
20.8274
21.4028
22.0106
22.6492
23.3167
24.0104
24.7272
25.4632
26.2133
26.9717
27.7311
28.4834
29.2173
29.924
30.5847
31.1977
16.5674
16.5922
16.6778
16.8075
16.9743
17.1803
17.4253
17.7083
18.0286
18.3859
18.7797
19.2093
19.6741
20.1735
20.7065
21.2722
21.8691
22.4955
23.1494
23.828
24.5281
25.2455
25.9751
26.7111
27.4457
28.171
28.8758
29.5508
30.1779
30.7542
16.4996
16.5241
16.6083
16.7365
16.9013
17.1047
17.3466
17.6258
17.9419
18.2942
18.6822
19.1053
19.5628
20.054
20.5778
21.1331
21.7185
22.3322
22.9718
23.6346
24.3172
25.0152
25.7236
26.4361
27.1452
27.8426
28.5173
29.1596
29.7521
30.2907
16.4269
16.4511
16.5339
16.6605
16.8232
17.0238
17.2624
17.5377
17.8491
18.1961
18.578
18.9943
19.4441
19.9265
20.4406
20.9851
21.5584
22.1586
22.7833
23.4296
24.0939
24.7718
25.458
26.1463
26.8289
27.4974
28.141
28.7497
29.3067
29.8067
16.3491
16.3731
16.4543
16.5792
16.7397
16.9373
17.1723
17.4434
17.75
18.0913
18.4669
18.8758
19.3175
19.7908
20.2946
20.8277
21.3883
21.9744
22.5835
23.2125
23.8577
24.5147
25.1778
25.8409
26.4961
27.1349
27.7464
28.3206
28.8411
29.3017
16.2658
16.2895
16.3692
16.4922
16.6503
16.8448
17.076
17.3427
17.6441
17.9795
18.3482
18.7495
19.1825
19.6461
20.1392
20.6603
21.2075
21.7789
22.3716
22.9826
23.608
24.2431
24.8824
25.5194
26.1462
26.7543
27.333
27.8717
28.3547
28.7751
16.1766
16.2001
16.2782
16.3992
16.5547
16.7459
16.9731
17.2351
17.5309
17.86
18.2216
18.6148
19.0387
19.4921
19.9739
20.4823
21.0156
21.5715
22.1472
22.7394
23.3441
23.9565
24.571
25.181
25.7787
26.3552
26.9
27.4024
27.8471
28.2264
16.0812
16.1044
16.1808
16.2997
16.4525
16.6402
16.8631
17.1201
17.4101
17.7325
18.0865
18.4712
18.8855
19.3282
19.798
20.2932
20.8119
21.3516
21.9095
22.4821
23.0653
23.6542
24.2431
24.8253
25.3928
25.9368
26.4468
26.9121
27.3176
27.6552
15.9791
16.0021
16.0768
16.1934
16.3433
16.5273
16.7457
16.9973
17.2812
17.5966
17.9425
18.3182
18.7223
19.1538
19.6111
20.0925
20.5958
21.1186
21.6579
22.2101
22.7709
23.3355
23.8979
24.4513
24.9878
25.4985
25.9729
26.4002
26.7658
27.061
15.8699
15.8927
15.9655
16.0797
16.2266
16.4066
16.6202
16.8662
17.1436
17.4515
17.789
18.1552
18.5487
18.9683
19.4125
19.8793
20.3666
20.8718
21.3917
21.9227
22.4604
22.9998
23.5348
24.0586
24.5632
25.0397
25.4776
25.8662
26.1911
26.4434
15.7533
15.7757
15.8467
15.9583
16.102
16.2778
16.4863
16.7264
16.9969
17.2969
17.6255
17.9816
18.364
18.7712
19.2016
19.6532
20.1237
20.6105
21.1103
21.6192
22.1329
22.6462
23.153
23.6463
24.1182
24.5597
24.9604
25.3097
25.5932
25.8021
15.6285
15.6506
15.7197
15.8286
15.9689
16.1402
16.3434
16.5772
16.8404
17.1321
17.4513
17.7969
18.1675
18.5617
18.9777
19.4134
19.8664
20.334
20.8129
21.299
21.7879
22.2742
22.7519
23.2139
23.6523
24.058
24.4208
24.73
24.9716
25.1366
15.4952
15.517
15.5842
15.6902
15.8268
15.9935
16.1909
16.4181
16.6736
16.9566
17.266
17.6005
17.9588
18.3392
18.7401
19.1592
19.594
20.0417
20.4988
20.9612
21.4244
21.883
22.3308
22.7607
23.1647
23.5339
23.8581
24.1267
24.326
24.4467
15.3529
15.3743
15.4395
15.5425
15.6752
15.837
16.0284
16.2486
16.4961
16.7698
17.0688
17.3917
17.737
18.1032
18.4882
18.89
19.3058
19.7328
20.1672
20.6052
21.0419
21.4718
21.8889
22.2859
22.6549
22.9869
23.272
23.4994
23.6559
23.7323
15.201
15.222
15.2851
15.3849
15.5135
15.6702
15.8553
16.0681
16.3071
16.5712
16.8592
17.1699
17.5017
17.8528
18.2214
18.6051
19.0011
19.4065
19.8176
20.2302
20.6395
21.04
21.4256
21.7889
22.1222
22.4164
22.6617
22.8476
22.9611
22.9929
15.0388
15.0594
15.1205
15.217
15.3413
15.4925
15.6711
15.8761
16.1061
16.36
16.6366
16.9345
17.2521
17.5876
17.9389
18.3037
18.6792
19.0622
19.449
19.8354
20.2166
20.5869
20.9401
21.2691
21.5659
21.8218
22.0269
22.171
22.2413
22.2286
14.8657
14.886
14.9451
15.0381
15.1579
15.3034
15.475
15.6719
15.8926
16.1358
16.4004
16.6849
16.9876
17.3068
17.6401
17.9853
18.3394
18.6992
19.0609
19.4203
19.7724
20.1117
20.4318
20.7257
20.9855
21.2025
21.3671
21.469
21.4961
21.439
14.6811
14.7013
14.7583
14.8476
14.9627
15.1022
15.2666
15.4549
15.6658
15.8979
16.1499
16.4204
16.7076
17.0096
17.3243
17.649
17.9809
18.3167
18.6525
18.984
19.3062
19.6136
19.8999
20.1581
20.3803
20.558
20.6816
20.7413
20.7251
20.6239
14.4844
14.5048
14.5597
14.6451
14.7551
14.8884
15.0452
15.2246
15.4251
15.6455
15.8844
16.1402
16.4113
16.6955
16.9907
17.2942
17.6031
17.914
18.223
18.5258
18.8174
19.0921
19.3439
19.5656
19.7497
19.8876
19.9701
19.9874
19.9281
19.7832
14.2752
14.296
14.3487
14.4301
14.5347
14.6615
14.8103
14.9803
15.17
15.3782
15.6034
15.844
16.0982
16.3639
16.6389
16.9204
17.2055
17.4907
17.7721
18.0453
18.3054
18.5468
18.7633
18.948
19.0934
19.1911
19.2322
19.2071
19.1048
18.9165
14.0537
14.0747
14.1252
14.2022
14.3012
14.421
14.5615
14.7217
14.9002
15.0956
15.3064
15.5311
15.7678
16.0143
16.2683
16.5271
16.7876
17.0463
17.2994
17.5423
17.7702
17.9775
18.1581
18.3052
18.4114
18.4686
18.4681
18.4006
18.2555
18.0243
13.8197
13.8405
13.8885
13.961
14.0542
14.1668
14.2985
14.4484
14.6151
14.7972
14.9932
15.2014
15.4198
15.6465
15.8788
16.1141
16.3493
16.5808
16.8048
17.0167
17.2117
17.3843
17.5284
17.6374
17.7041
17.7206
17.6783
17.5684
17.3808
17.1072
13.5724
13.5929
13.6383
13.7062
13.7932
13.8982
14.0208
14.16
14.3145
14.4828
14.6633
14.8544
15.054
15.2601
15.4701
15.6812
15.8904
16.094
16.2882
16.4685
16.63
16.7674
16.8746
16.9452
16.9721
16.9477
16.8637
16.7117
16.4819
16.1665
13.3116
13.3314
13.3741
13.4372
13.5178
13.6149
13.7281
13.8562
13.998
14.1519
14.3165
14.4899
14.6701
14.855
15.042
15.2283
15.4108
15.5859
15.7497
15.8978
16.0254
16.1271
16.1971
16.2291
16.2161
16.1508
16.0254
15.8316
15.5602
15.2038
13.0368
13.0559
13.0957
13.1538
13.2277
13.3167
13.42
13.5367
13.6653
13.8044
13.9524
14.1076
14.2678
14.4309
14.5943
14.7552
14.9104
15.0564
15.1893
15.3047
15.398
15.4637
15.4963
15.4895
15.4367
15.3309
15.1643
14.9293
14.6172
14.2206
12.748
12.7661
12.8028
12.8557
12.9228
13.0033
13.0964
13.2012
13.3163
13.4401
13.571
13.7074
13.847
13.9877
14.127
14.2619
14.3893
14.5057
14.6072
14.6896
14.7481
14.7777
14.7727
14.7272
14.6348
14.4887
14.2816
14.0061
13.654
13.2186
12.4449
12.4619
12.4954
12.5429
12.6028
12.6745
12.7572
12.8497
12.9508
13.0588
13.1723
13.2893
13.4079
13.5257
13.6402
13.7486
13.8477
13.9341
14.0038
14.0528
14.0764
14.0697
14.0271
13.9431
13.8113
13.6253
13.3783
13.0632
12.6723
12.1991
12.1275
12.1432
12.1732
12.2152
12.2678
12.3304
12.4023
12.4822
12.5688
12.6607
12.7562
12.8535
12.9505
13.0449
13.1343
13.2157
13.2862
13.3421
13.3798
13.3952
13.3837
13.3406
13.2606
13.1381
12.9674
12.7422
12.4559
12.1021
11.6735
11.164
11.7959
11.8101
11.8364
11.8726
11.9177
11.971
12.0317
12.0987
12.1706
12.2459
12.3231
12.4002
12.4752
12.5459
12.6097
12.6638
12.7052
12.7305
12.7359
12.7176
12.671
12.5916
12.4743
12.3139
12.1047
11.8409
11.5163
11.1248
10.6598
10.1154
11.4499
11.4624
11.4849
11.5152
11.5525
11.5962
11.6456
11.6993
11.7561
11.8146
11.873
11.9296
11.9824
12.029
12.067
12.0935
12.1057
12.1002
12.0733
12.0212
11.9396
11.8242
11.67
11.4721
11.2251
10.9235
10.5615
10.1335
9.63336
9.05553
11.0895
11.1002
11.1187
11.1429
11.1722
11.2062
11.2439
11.2842
11.3257
11.3669
11.4064
11.4422
11.4724
11.4947
11.5067
11.5056
11.4884
11.452
11.3929
11.3072
11.191
11.0399
10.8493
10.6145
10.3305
9.99211
9.59394
9.13069
8.5968
7.98716
10.7147
10.7235
10.7378
10.7558
10.7771
10.8011
10.8269
10.8534
10.8794
10.9032
10.9235
10.9384
10.9458
10.9437
10.9295
10.9007
10.8543
10.7872
10.696
10.577
10.4265
10.2403
10.0141
9.74326
9.42321
9.04908
8.61595
8.11888
7.55282
6.91305
10.3254
10.3322
10.3423
10.354
10.367
10.3809
10.3947
10.4073
10.4175
10.4238
10.4247
10.4185
10.4031
10.3765
10.3362
10.2797
10.2041
10.1065
9.9836
9.83187
9.64766
9.42704
9.16594
8.86011
8.50516
8.09662
7.62995
7.10061
6.50406
5.83596
9.92169
9.92648
9.93234
9.93763
9.94225
9.94585
9.94751
9.9461
9.94037
9.92901
9.91047
9.88304
9.84481
9.79368
9.72735
9.64333
9.53891
9.41116
9.25697
9.07301
8.85579
8.60161
8.30664
7.9669
7.57833
7.1368
6.63814
6.07823
5.45299
4.75844
9.5036
9.50646
9.50803
9.50685
9.50301
9.49625
9.48565
9.47009
9.44839
9.41927
9.38123
9.33261
9.27156
9.19605
9.10387
8.99259
8.85962
8.70217
8.51726
8.30176
8.05233
7.76554
7.43779
7.06539
6.64458
6.17158
5.6426
5.05391
4.40184
3.68283
9.0715
9.07244
9.06969
9.06196
9.0496
9.03241
9.00948
8.97971
8.942
8.89509
8.83757
8.76782
8.68407
8.58436
8.46656
8.32836
8.16728
7.98067
7.76571
7.51943
7.23873
6.92037
6.56103
6.15731
5.70575
5.2029
4.64533
4.0297
3.35275
2.61129
8.62548
8.62458
8.61757
8.60328
8.58237
8.55472
8.51943
8.47545
8.42172
8.35707
8.28014
8.18939
8.08311
7.95945
7.81637
7.65167
7.46301
7.24787
7.0036
6.72743
6.41646
6.06768
5.67804
5.2444
4.76364
4.23262
3.64826
3.00758
2.30773
1.54586
8.16611
8.16342
8.15216
8.13132
8.10184
8.06372
8.01608
7.95791
7.88821
7.8059
7.7097
7.59813
7.46959
7.32231
7.15436
6.96367
6.74802
6.50507
6.23234
5.92723
5.58708
5.20911
4.79052
4.32846
3.8201
3.26263
2.65332
1.98952
1.26875
0.488513
7.69396
7.68948
7.67401
7.64663
7.6086
7.56005
7.5001
7.4278
7.34225
7.24242
7.12714
6.99501
6.84452
6.67402
6.48168
6.26558
6.02365
5.75369
5.4534
5.1204
4.75223
4.34636
3.90024
3.4113
2.877
2.29485
1.66243
0.977439
0.23773
-0.558841
7.20963
7.20341
7.18378
7.14991
7.10338
7.04445
6.97229
6.88598
6.78471
6.66757
6.53345
6.38108
6.20904
6.01578
5.79963
5.55878
5.29131
4.99522
4.66837
4.30859
3.91363
3.48121
3.00903
2.49479
1.93624
1.33119
0.677524
-0.026739
-0.783419
-1.59434
6.71398
6.70606
6.68234
6.64205
6.58708
6.51786
6.43359
6.33342
6.21664
6.08243
5.92979
5.75755
5.56441
5.34894
5.10959
4.84472
4.55257
4.23128
3.87892
3.49353
3.07307
2.6155
2.11877
1.58084
0.999747
0.373574
-0.299483
-1.02111
-1.79284
-2.61617
6.20798
6.19841
6.17068
6.12404
6.06074
5.98135
5.88513
5.7713
5.63924
5.48826
5.31747
5.12579
4.91206
4.67498
4.41315
4.12505
3.80909
3.46361
3.08686
2.67708
2.23244
1.75115
1.2314
0.671411
0.0694763
-0.576039
-1.26666
-2.0038
-2.78869
-3.62256
5.69297
5.68177
5.65006
5.59717
5.52564
5.43621
5.32821
5.20095
5.0539
4.88649
4.69796
4.48734
4.2536
3.99557
3.71198
3.40151
3.0627
2.69407
2.29409
1.86117
1.39372
0.890167
0.348937
-0.231491
-0.852574
-1.51569
-2.22209
-2.97292
-3.76917
-4.61179
5.17004
5.15731
5.12177
5.06275
4.98314
4.88386
4.76432
4.62388
4.46217
4.27873
4.07292
3.8439
3.59077
3.31249
3.00797
2.67601
2.31534
1.92467
1.50263
1.04786
0.558975
0.0346171
-0.526549
-1.12581
-1.76438
-2.44338
-3.16383
-3.92662
-4.73249
-5.58217
4.6412
4.62693
4.58761
4.52257
4.435
4.32605
4.19518
4.04187
3.86585
3.66681
3.44421
3.19738
2.92552
2.62775
2.30313
1.95062
1.56912
1.15751
0.714632
0.239305
-0.269636
-0.813342
-1.39292
-2.00944
-2.66387
-3.35711
-4.08994
-4.86304
-5.67691
-6.53207
4.10793
4.09223
4.04927
3.97836
3.88303
3.76462
3.6227
3.45684
3.2669
3.05272
2.81389
2.54985
2.25997
1.9435
1.59965
1.22755
0.82627
0.394865
-0.0676422
-0.562229
-1.08986
-1.65148
-2.24799
-2.88023
-3.54896
-4.25486
-4.99851
-5.78035
-6.6007
-7.45987
3.57268
3.55557
3.50903
3.43238
3.32944
3.20177
3.04906
2.87099
2.66755
2.43871
2.1842
1.90362
1.59643
1.26208
0.899895
0.509178
0.089175
-0.360892
-0.841815
-1.35438
-1.89937
-2.47751
-3.08951
-3.736
-4.41754
-5.13462
-5.88759
-6.67674
-7.50217
-8.36402
3.03759
3.01917
2.9692
2.88695
2.77657
2.63987
2.47666
2.28674
2.07023
1.82724
1.55765
1.26117
0.937435
0.58601
0.206397
-0.201954
-0.639628
-1.10723
-1.60538
-2.13468
-2.69572
-3.28904
-3.91515
-4.57451
-5.26747
-5.99433
-6.75527
-7.5504
-8.37965
-9.24301
2.5055
2.48584
2.43255
2.34482
2.22718
2.08166
1.90823
1.70681
1.47766
1.22104
0.936952
0.625256
0.285717
-0.0819533
-0.478101
-0.903119
-1.35743
-1.84148
-2.3557
-2.90054
-3.47638
-4.08361
-4.72256
-5.39347
-6.09656
-6.83193
-7.59961
-8.39953
-9.23149
-10.0953
1.97952
1.95867
1.90214
1.80904
1.68426
1.53011
1.34674
1.13418
0.89283
0.623083
0.325091
-0.00115918
-0.355763
-0.738868
-1.15067
-1.59142
-2.06137
-2.56081
-3.09001
-3.64924
-4.23873
-4.85869
-5.50927
-6.19057
-6.90262
-7.64537
-8.41871
-9.2224
-10.0561
-10.9196
1.46296
1.44101
1.38134
1.28295
1.15113