/*--------------------------------*- C++ -*----------------------------------*\
| =========                 |                                                 |
| \\      /  F ield         | OpenFOAM: The Open Source CFD Toolbox           |
|  \\    /   O peration     | Version:  2506                                  |
|   \\  /    A nd           | Website:  www.openfoam.com                      |
|    \\/     M anipulation  |                                                 |
\*---------------------------------------------------------------------------*/
FoamFile
{
    version     2.0;
    format      ascii;
    arch        "LSB;label=32;scalar=64";
    class       surfaceScalarField;
    location    "6000";
    object      phi;
}
// * * * * * * * * * * * * * * * * * * * * * * * * * * * * * * * * * * * * * //

dimensions      [0 3 -1 0 0 0 0];

oriented        oriented;

internalField   nonuniform List<scalar> 
81135
(
1.64444e-06
-3.63996e-07
1.65204e-06
-7.60323e-09
1.63261e-06
1.9429e-08
1.61115e-06
2.1463e-08
1.58787e-06
2.32816e-08
1.56268e-06
2.51928e-08
1.53569e-06
2.6986e-08
1.50684e-06
2.88522e-08
1.47605e-06
3.07842e-08
1.44323e-06
3.28213e-08
1.40824e-06
3.49893e-08
1.37093e-06
3.73167e-08
1.3311e-06
3.98225e-08
1.28854e-06
4.25626e-08
1.24293e-06
4.5614e-08
1.19398e-06
4.8948e-08
1.14151e-06
5.24721e-08
1.08531e-06
5.61986e-08
1.02497e-06
6.03424e-08
9.60097e-07
6.4869e-08
8.90172e-07
6.99252e-08
8.15041e-07
7.5131e-08
7.33977e-07
8.10636e-08
6.47521e-07
8.64564e-08
5.54261e-07
9.32594e-08
4.57169e-07
9.7092e-08
3.52271e-07
1.04898e-07
2.50217e-07
1.02054e-07
1.3731e-07
1.12907e-07
9.02514e-08
4.70588e-08
5.17811e-06
-6.47576e-07
5.18744e-06
-1.69299e-08
5.13795e-06
6.89142e-08
5.07786e-06
8.15557e-08
5.01187e-06
8.92656e-08
4.94013e-06
9.69363e-08
4.86281e-06
1.04311e-07
4.77981e-06
1.1185e-07
4.69094e-06
1.19648e-07
4.59592e-06
1.27845e-07
4.49436e-06
1.36551e-07
4.38579e-06
1.4588e-07
4.2697e-06
1.55916e-07
4.14536e-06
1.66908e-07
4.01182e-06
1.79154e-07
3.86824e-06
1.92521e-07
3.71404e-06
2.06672e-07
3.54851e-06
2.21726e-07
3.37044e-06
2.38421e-07
3.17844e-06
2.56866e-07
2.97108e-06
2.77285e-07
2.74727e-06
2.98942e-07
2.50548e-06
3.22857e-07
2.24533e-06
3.46603e-07
1.96534e-06
3.73247e-07
1.66785e-06
3.94587e-07
1.35151e-06
4.21238e-07
1.02612e-06
4.2744e-07
6.89579e-07
4.49448e-07
4.12715e-07
3.67116e-07
9.05157e-06
-8.64593e-07
9.05435e-06
-1.97148e-08
8.98192e-06
1.41344e-07
8.88871e-06
1.74771e-07
8.78415e-06
1.93826e-07
8.66972e-06
2.11363e-07
8.54571e-06
2.28324e-07
8.41206e-06
2.45497e-07
8.26849e-06
2.63221e-07
8.11452e-06
2.8181e-07
7.94956e-06
3.01521e-07
7.77282e-06
3.22615e-07
7.58344e-06
3.45294e-07
7.38018e-06
3.70168e-07
7.16144e-06
3.97896e-07
6.92582e-06
4.28139e-07
6.67229e-06
4.60208e-07
6.39955e-06
4.94462e-07
6.10551e-06
5.3246e-07
5.78767e-06
5.74708e-07
5.44358e-06
6.21376e-07
5.07088e-06
6.71639e-07
4.66715e-06
7.26591e-07
4.23032e-06
7.83435e-07
3.75902e-06
8.44545e-07
3.25289e-06
9.00719e-07
2.71495e-06
9.59175e-07
2.14825e-06
9.94144e-07
1.57046e-06
1.02723e-06
1.00284e-06
9.80332e-07
1.30841e-05
-1.0232e-06
1.30785e-05
-1.41428e-08
1.2992e-05
2.27851e-07
1.28751e-05
2.91633e-07
1.27403e-05
3.2869e-07
1.25912e-05
3.60465e-07
1.24285e-05
3.90956e-07
1.22524e-05
4.21589e-07
1.20625e-05
4.5311e-07
1.18583e-05
4.86094e-07
1.16388e-05
5.21013e-07
1.1403e-05
5.58344e-07
1.11499e-05
5.98469e-07
1.08775e-05
6.42542e-07
1.05837e-05
6.91702e-07
1.02665e-05
7.45299e-07
9.92447e-06
8.0226e-07
9.55558e-06
8.63351e-07
9.15678e-06
9.31258e-07
8.72437e-06
1.00712e-06
8.25472e-06
1.09102e-06
7.74402e-06
1.18233e-06
7.18847e-06
1.28215e-06
6.58403e-06
1.38788e-06
5.92831e-06
1.50026e-06
5.21815e-06
1.61087e-06
4.45801e-06
1.71932e-06
3.64598e-06
1.80618e-06
2.81127e-06
1.86193e-06
1.8764e-06
1.93772e-06
1.69126e-05
-1.12765e-06
1.69004e-05
-2.01539e-09
1.68103e-05
3.18022e-07
1.66812e-05
4.20697e-07
1.65274e-05
4.82505e-07
1.63549e-05
5.32954e-07
1.61653e-05
5.80587e-07
1.59588e-05
6.28027e-07
1.57353e-05
6.76631e-07
1.54941e-05
7.27333e-07
1.52342e-05
7.809e-07
1.49544e-05
8.38088e-07
1.46534e-05
8.99531e-07
1.43288e-05
9.67079e-07
1.39781e-05
1.04243e-06
1.35989e-05
1.12455e-06
1.31891e-05
1.21204e-06
1.27462e-05
1.30625e-06
1.22662e-05
1.41126e-06
1.17443e-05
1.52903e-06
1.11757e-05
1.65959e-06
1.05551e-05
1.8029e-06
9.87715e-06
1.96014e-06
9.13544e-06
2.12958e-06
8.32584e-06
2.30986e-06
7.44164e-06
2.49507e-06
6.4865e-06
2.67445e-06
5.45278e-06
2.8399e-06
4.37522e-06
2.9395e-06
3.02454e-06
3.22708e-06
2.03332e-05
-1.18789e-06
2.03161e-05
1.50484e-08
2.02281e-05
4.06044e-07
2.00949e-05
5.53902e-07
1.9931e-05
6.46377e-07
1.97442e-05
7.19791e-07
1.95369e-05
7.87915e-07
1.93098e-05
8.55124e-07
1.90628e-05
9.23605e-07
1.87954e-05
9.94754e-07
1.85066e-05
1.06971e-06
1.81951e-05
1.14958e-06
1.78593e-05
1.2353e-06
1.74968e-05
1.32955e-06
1.71047e-05
1.43456e-06
1.66804e-05
1.54885e-06
1.62215e-05
1.67092e-06
1.57249e-05
1.80286e-06
1.51859e-05
1.95024e-06
1.4599e-05
2.11596e-06
1.39586e-05
2.30005e-06
1.3258e-05
2.50349e-06
1.24905e-05
2.72764e-06
1.16477e-05
2.97233e-06
1.07238e-05
3.23383e-06
9.70825e-06
3.51058e-06
8.60319e-06
3.77952e-06
7.3942e-06
4.04888e-06
6.118e-06
4.21571e-06
4.4061e-06
4.73643e-06
2.33973e-05
-1.21624e-06
2.33742e-05
3.81435e-08
2.32896e-05
4.90627e-07
2.31568e-05
6.86757e-07
2.29883e-05
8.14864e-07
2.27925e-05
9.15562e-07
2.25728e-05
1.00766e-06
2.23302e-05
1.09767e-06
2.2065e-05
1.1888e-06
2.17768e-05
1.28302e-06
2.14645e-05
1.38194e-06
2.11271e-05
1.48706e-06
2.07627e-05
1.59971e-06
2.03692e-05
1.72297e-06
1.99442e-05
1.85955e-06
1.94847e-05
2.00837e-06
1.89876e-05
2.16807e-06
1.84492e-05
2.34124e-06
1.78644e-05
2.535e-06
1.72272e-05
2.75316e-06
1.65315e-05
2.99577e-06
1.57697e-05
3.2653e-06
1.4934e-05
3.56334e-06
1.40146e-05
3.89177e-06
1.30039e-05
4.24445e-06
1.18888e-05
4.62568e-06
1.06695e-05
4.99884e-06
9.32564e-06
5.39276e-06
7.89396e-06
5.64738e-06
5.97439e-06
6.32568e-06
2.62127e-05
-1.22034e-06
2.61823e-05
6.85612e-08
2.61001e-05
5.72839e-07
2.59695e-05
8.17423e-07
2.57997e-05
9.84593e-07
2.55988e-05
1.11645e-06
2.53705e-05
1.23598e-06
2.51163e-05
1.3519e-06
2.48366e-05
1.46851e-06
2.45312e-05
1.58841e-06
2.41993e-05
1.71382e-06
2.38397e-05
1.84669e-06
2.34506e-05
1.98878e-06
2.30302e-05
2.14333e-06
2.25764e-05
2.31338e-06
2.20859e-05
2.49887e-06
2.15551e-05
2.6989e-06
2.09799e-05
2.91642e-06
2.03555e-05
3.15939e-06
1.9676e-05
3.4327e-06
1.89342e-05
3.73752e-06
1.81217e-05
4.07782e-06
1.72298e-05
4.45524e-06
1.62475e-05
4.87407e-06
1.51662e-05
5.3258e-06
1.39701e-05
5.82172e-06
1.26579e-05
6.31105e-06
1.12045e-05
6.84617e-06
9.64516e-06
7.20672e-06
7.69648e-06
7.92307e-06
2.88584e-05
-1.20771e-06
2.88208e-05
1.06177e-07
2.87389e-05
6.54716e-07
2.86103e-05
9.46044e-07
2.84411e-05
1.15372e-06
2.8238e-05
1.31958e-06
2.80044e-05
1.4696e-06
2.77419e-05
1.61439e-06
2.74513e-05
1.75914e-06
2.71324e-05
1.90723e-06
2.67847e-05
2.06156e-06
2.64068e-05
2.22455e-06
2.59972e-05
2.39843e-06
2.55538e-05
2.58669e-06
2.50745e-05
2.79272e-06
2.4556e-05
3.01733e-06
2.39947e-05
3.26024e-06
2.33861e-05
3.525e-06
2.27257e-05
3.81986e-06
2.20075e-05
4.15089e-06
2.12242e-05
4.52081e-06
2.03669e-05
4.9351e-06
1.9426e-05
5.39612e-06
1.83892e-05
5.91083e-06
1.72468e-05
6.46824e-06
1.59812e-05
7.08733e-06
1.45891e-05
7.70311e-06
1.30419e-05
8.3934e-06
1.1372e-05
8.87657e-06
9.55145e-06
9.51708e-06
3.13904e-05
-1.18435e-06
3.13463e-05
1.50361e-07
3.12629e-05
7.38112e-07
3.11354e-05
1.07352e-06
3.09675e-05
1.32158e-06
3.07639e-05
1.52318e-06
3.05273e-05
1.7062e-06
3.02592e-05
1.8825e-06
2.99605e-05
2.05784e-06
2.96313e-05
2.23647e-06
2.92708e-05
2.42206e-06
2.88779e-05
2.61742e-06
2.8451e-05
2.82528e-06
2.79881e-05
3.04959e-06
2.74868e-05
3.29403e-06
2.6944e-05
3.56018e-06
2.63558e-05
3.84844e-06
2.57177e-05
4.16307e-06
2.50248e-05
4.51278e-06
2.4271e-05
4.9047e-06
2.34491e-05
5.34271e-06
2.25502e-05
5.83399e-06
2.15645e-05
6.3818e-06
2.04788e-05
6.99657e-06
1.92817e-05
7.66533e-06
1.79541e-05
8.41494e-06
1.64909e-05
9.16625e-06
1.48605e-05
1.00239e-05
1.30917e-05
1.06453e-05
1.15252e-05
1.1118e-05
3.38515e-05
-1.15469e-06
3.38016e-05
2.00313e-07
3.37156e-05
8.24043e-07
3.35884e-05
1.20078e-06
3.34216e-05
1.48834e-06
3.32182e-05
1.72662e-06
3.29799e-05
1.94452e-06
3.27079e-05
2.15444e-06
3.24033e-05
2.36247e-06
3.20659e-05
2.57382e-06
3.16951e-05
2.79286e-06
3.12898e-05
3.02271e-06
3.08485e-05
3.26665e-06
3.03689e-05
3.52918e-06
2.98486e-05
3.81434e-06
2.92844e-05
4.12438e-06
2.86725e-05
4.46034e-06
2.80082e-05
4.82732e-06
2.72863e-05
5.23468e-06
2.65004e-05
5.69056e-06
2.56433e-05
6.19987e-06
2.47057e-05
6.7716e-06
2.36779e-05
7.40953e-06
2.25464e-05
8.12809e-06
2.12989e-05
8.91287e-06
1.99147e-05
9.79916e-06
1.83868e-05
1.06941e-05
1.66808e-05
1.173e-05
1.48219e-05
1.25041e-05
1.36074e-05
1.27398e-05
3.62748e-05
-1.12046e-06
3.62206e-05
2.54466e-07
3.6133e-05
9.11719e-07
3.60053e-05
1.32845e-06
3.58385e-05
1.65513e-06
3.56343e-05
1.93081e-06
3.53942e-05
2.18463e-06
3.51193e-05
2.42939e-06
3.48099e-05
2.67178e-06
3.4466e-05
2.91775e-06
3.40867e-05
3.17219e-06
3.3671e-05
3.43838e-06
3.32173e-05
3.72037e-06
3.27233e-05
4.0232e-06
3.21864e-05
4.35122e-06
3.16034e-05
4.7074e-06
3.09703e-05
5.0934e-06
3.02825e-05
5.5151e-06
2.95345e-05
5.98268e-06
2.87197e-05
6.50537e-06
2.78306e-05
7.08904e-06
2.68576e-05
7.74457e-06
2.57908e-05
8.47633e-06
2.46162e-05
9.30267e-06
2.33212e-05
1.02078e-05
2.18843e-05
1.12361e-05
2.02961e-05
1.22823e-05
1.852e-05
1.3506e-05
1.65779e-05
1.44462e-05
1.57899e-05
1.43953e-05
3.86879e-05
-1.08091e-06
3.86312e-05
3.11174e-07
3.85426e-05
1.00034e-06
3.84141e-05
1.45687e-06
3.82465e-05
1.8228e-06
3.80407e-05
2.13657e-06
3.77982e-05
2.42717e-06
3.75198e-05
2.7078e-06
3.72056e-05
2.98595e-06
3.68554e-05
3.26795e-06
3.64685e-05
3.55907e-06
3.60438e-05
3.86313e-06
3.55792e-05
4.1849e-06
3.50726e-05
4.52984e-06
3.45211e-05
4.90271e-06
3.39213e-05
5.30722e-06
3.32692e-05
5.74551e-06
3.256e-05
6.22425e-06
3.17882e-05
6.7545e-06
3.0947e-05
7.34661e-06
3.00285e-05
8.00751e-06
2.90231e-05
8.74996e-06
2.79204e-05
9.57909e-06
2.6706e-05
1.0517e-05
2.53668e-05
1.15471e-05
2.38805e-05
1.27224e-05
2.22358e-05
1.3927e-05
2.0395e-05
1.53468e-05
1.83745e-05
1.64667e-05
1.80653e-05
1.60991e-05
4.11123e-05
-1.03643e-06
4.10535e-05
3.69935e-07
4.09638e-05
1.09008e-06
4.08344e-05
1.58628e-06
4.06656e-05
1.99159e-06
4.04581e-05
2.344e-06
4.0213e-05
2.67235e-06
3.99307e-05
2.99006e-06
3.96114e-05
3.30526e-06
3.92548e-05
3.62453e-06
3.88603e-05
3.95356e-06
3.84266e-05
4.29684e-06
3.79519e-05
4.65961e-06
3.74338e-05
5.04795e-06
3.68692e-05
5.46735e-06
3.62542e-05
5.92221e-06
3.55847e-05
6.41502e-06
3.48559e-05
6.95303e-06
3.40621e-05
7.54825e-06
3.31965e-05
8.21227e-06
3.2251e-05
8.95305e-06
3.12156e-05
9.78531e-06
3.00796e-05
1.07151e-05
2.88284e-05
1.17682e-05
2.74482e-05
1.29273e-05
2.59162e-05
1.42544e-05
2.42193e-05
1.56239e-05
2.23192e-05
1.72469e-05
2.02254e-05
1.85605e-05
2.04257e-05
1.78649e-05
4.35633e-05
-9.87926e-07
4.35024e-05
4.30845e-07
4.34113e-05
1.18118e-06
4.32806e-05
1.71698e-06
4.31104e-05
2.16178e-06
4.29011e-05
2.55329e-06
4.26533e-05
2.9202e-06
4.23673e-05
3.27604e-06
4.20431e-05
3.62947e-06
4.16803e-05
3.98732e-06
4.12782e-05
4.35566e-06
4.08355e-05
4.73955e-06
4.03505e-05
5.14456e-06
3.98211e-05
5.57733e-06
3.92441e-05
6.0444e-06
3.86151e-05
6.55122e-06
3.79295e-05
7.10062e-06
3.71825e-05
7.70003e-06
3.63683e-05
8.36245e-06
3.54798e-05
9.10069e-06
3.4509e-05
9.92385e-06
3.34458e-05
1.08486e-05
3.22788e-05
1.1882e-05
3.09934e-05
1.30536e-05
2.9575e-05
1.43457e-05
2.80007e-05
1.58287e-05
2.62555e-05
1.73691e-05
2.43008e-05
1.92016e-05
2.21399e-05
2.07215e-05
2.2864e-05
1.97015e-05
4.60528e-05
-9.36092e-07
4.59898e-05
4.93934e-07
4.5897e-05
1.27389e-06
4.57648e-05
1.84922e-06
4.55929e-05
2.33366e-06
4.53815e-05
2.76468e-06
4.51309e-05
3.17085e-06
4.48412e-05
3.56576e-06
4.45122e-05
3.95846e-06
4.41434e-05
4.35609e-06
4.3734e-05
4.76505e-06
4.32827e-05
5.19091e-06
4.27876e-05
5.6396e-06
4.22468e-05
6.11817e-06
4.16574e-05
6.63381e-06
4.10149e-05
7.1937e-06
4.03141e-05
7.80139e-06
3.95499e-05
8.4642e-06
3.87165e-05
9.1959e-06
3.78066e-05
1.00106e-05
3.6812e-05
1.09184e-05
3.57225e-05
1.19382e-05
3.45265e-05
1.3078e-05
3.32089e-05
1.43711e-05
3.17549e-05
1.57997e-05
3.01411e-05
1.74425e-05
2.83512e-05
1.9159e-05
2.63463e-05
2.12065e-05
2.4124e-05
2.29437e-05
2.53736e-05
2.16145e-05
4.85909e-05
-8.8143e-07
4.85257e-05
5.59192e-07
4.84311e-05
1.36843e-06
4.82971e-05
1.98328e-06
4.81232e-05
2.50755e-06
4.79094e-05
2.97846e-06
4.76557e-05
3.42449e-06
4.73622e-05
3.85929e-06
4.70284e-05
4.29223e-06
4.66538e-05
4.73074e-06
4.62373e-05
5.18154e-06
4.57776e-05
5.65065e-06
4.52728e-05
6.1444e-06
4.47207e-05
6.67023e-06
4.41188e-05
7.23573e-06
4.34629e-05
7.84956e-06
4.27476e-05
8.51675e-06
4.1967e-05
9.24475e-06
4.11152e-05
1.00477e-05
4.0185e-05
1.09408e-05
3.91678e-05
1.19356e-05
3.80533e-05
1.30527e-05
3.68298e-05
1.43015e-05
3.5482e-05
1.57189e-05
3.39945e-05
1.72872e-05
3.23437e-05
1.90932e-05
3.05122e-05
2.09905e-05
2.84608e-05
2.32579e-05
2.61825e-05
2.5222e-05
2.79483e-05
2.36079e-05
5.11862e-05
-8.24282e-07
5.11188e-05
6.26592e-07
5.10222e-05
1.46498e-06
5.08861e-05
2.11943e-06
5.07099e-05
2.68372e-06
5.04934e-05
3.19492e-06
5.02366e-05
3.68138e-06
4.9939e-05
4.15681e-06
4.96004e-05
4.63088e-06
4.92198e-05
5.11129e-06
4.87963e-05
5.60504e-06
4.83284e-05
6.11861e-06
4.78141e-05
6.65871e-06
4.72511e-05
7.23321e-06
4.66368e-05
7.85006e-06
4.59675e-05
8.51883e-06
4.52378e-05
9.24645e-06
4.44413e-05
1.00412e-05
4.35719e-05
1.09172e-05
4.2622e-05
1.18907e-05
4.15832e-05
1.29744e-05
4.04449e-05
1.4191e-05
3.91952e-05
1.55512e-05
3.78187e-05
1.70955e-05
3.62995e-05
1.88064e-05
3.46139e-05
2.07788e-05
3.27434e-05
2.2861e-05
3.06489e-05
2.53525e-05
2.83193e-05
2.75515e-05
3.05821e-05
2.56855e-05
5.38463e-05
-7.65087e-07
5.37768e-05
6.96093e-07
5.36781e-05
1.56372e-06
5.35396e-05
2.25789e-06
5.33609e-05
2.86249e-06
5.31414e-05
3.41436e-06
5.2881e-05
3.94179e-06
5.25793e-05
4.45855e-06
5.22356e-05
4.97457e-06
5.18491e-05
5.49781e-06
5.14185e-05
6.03558e-06
5.09424e-05
6.59474e-06
5.04187e-05
7.18243e-06
4.9845e-05
7.80691e-06
4.92184e-05
8.4766e-06
4.85358e-05
9.20146e-06
4.77918e-05
9.99048e-06
4.69797e-05
1.08533e-05
4.60929e-05
1.18039e-05
4.51241e-05
1.28595e-05
4.40644e-05
1.40341e-05
4.29032e-05
1.53523e-05
4.16284e-05
1.6826e-05
4.02244e-05
1.84995e-05
3.86751e-05
2.03557e-05
3.69566e-05
2.24974e-05
3.50496e-05
2.4768e-05
3.29148e-05
2.74872e-05
3.05383e-05
2.99281e-05
3.32698e-05
2.78506e-05
5.65784e-05
-7.04096e-07
5.65069e-05
7.67656e-07
5.64058e-05
1.66479e-06
5.62648e-05
2.3989e-06
5.60831e-05
3.04412e-06
5.58604e-05
3.6371e-06
5.55962e-05
4.20602e-06
5.529e-05
4.76477e-06
5.4941e-05
5.32351e-06
5.45484e-05
5.89047e-06
5.41107e-05
6.47326e-06
5.36263e-05
7.0791e-06
5.30932e-05
7.71554e-06
5.25089e-05
8.39126e-06
5.18703e-05
9.11518e-06
5.11743e-05
9.8974e-06
5.04159e-05
1.07489e-05
4.95883e-05
1.1681e-05
4.86846e-05
1.27076e-05
4.76971e-05
1.3847e-05
4.66171e-05
1.51141e-05
4.54337e-05
1.65357e-05
4.41347e-05
1.8125e-05
4.27043e-05
1.99298e-05
4.11262e-05
2.19338e-05
3.93765e-05
2.42471e-05
3.7435e-05
2.67095e-05
3.52628e-05
2.96595e-05
3.28429e-05
3.2348e-05
3.60063e-05
3.01064e-05
5.93889e-05
-6.41475e-07
5.93153e-05
8.41251e-07
5.92118e-05
1.76831e-06
5.9068e-05
2.54265e-06
5.88833e-05
3.22888e-06
5.8657e-05
3.86343e-06
5.83886e-05
4.47438e-06
5.80776e-05
5.07576e-06
5.77231e-05
5.67797e-06
5.73241e-05
6.2895e-06
5.68791e-05
6.91824e-06
5.63864e-05
7.57179e-06
5.58439e-05
8.25811e-06
5.52489e-05
8.98627e-06
5.45983e-05
9.76575e-06
5.38891e-05
1.06066e-05
5.31162e-05
1.15217e-05
5.22729e-05
1.25243e-05
5.13524e-05
1.36281e-05
5.03466e-05
1.48527e-05
4.92466e-05
1.62141e-05
4.80415e-05
1.77408e-05
4.6719e-05
1.94475e-05
4.52631e-05
2.13857e-05
4.36574e-05
2.35395e-05
4.18778e-05
2.60267e-05
3.99038e-05
2.86835e-05
3.76965e-05
3.18668e-05
3.52367e-05
3.48078e-05
3.8787e-05
3.2456e-05
6.2284e-05
-5.77423e-07
6.22084e-05
9.16854e-07
6.21023e-05
1.8744e-06
6.19556e-05
2.68935e-06
6.17675e-05
3.41703e-06
6.15372e-05
4.09365e-06
6.12644e-05
4.7472e-06
6.09484e-05
5.39184e-06
6.05881e-05
6.03824e-06
6.01824e-05
6.69515e-06
5.97299e-05
7.37075e-06
5.92287e-05
8.07301e-06
5.86765e-05
8.81027e-06
5.80708e-05
9.59204e-06
5.74082e-05
1.04283e-05
5.66856e-05
1.13293e-05
5.58982e-05
1.23091e-05
5.50393e-05
1.33832e-05
5.41018e-05
1.45656e-05
5.30778e-05
1.58767e-05
5.19581e-05
1.73338e-05
5.07316e-05
1.89673e-05
4.93861e-05
2.07931e-05
4.79054e-05
2.28664e-05
4.6273e-05
2.51718e-05
4.44649e-05
2.78349e-05
4.24599e-05
3.06884e-05
4.02197e-05
3.4107e-05
3.7723e-05
3.73045e-05
4.16076e-05
3.49024e-05
6.52696e-05
-5.1207e-07
6.5192e-05
9.94449e-07
6.50832e-05
1.98317e-06
6.49334e-05
2.83917e-06
6.47416e-05
3.60881e-06
6.45072e-05
4.32805e-06
6.42296e-05
5.02478e-06
6.39081e-05
5.71333e-06
6.35417e-05
6.40464e-06
6.31292e-05
7.10773e-06
6.26688e-05
7.83107e-06
6.21589e-05
8.58299e-06
6.15969e-05
9.37224e-06
6.09802e-05
1.02087e-05
6.03055e-05
1.1103e-05
5.95694e-05
1.20654e-05
5.87672e-05
1.31113e-05
5.78925e-05
1.42579e-05
5.69381e-05
1.552e-05
5.58958e-05
1.6919e-05
5.47564e-05
1.84732e-05
5.35089e-05
2.02149e-05
5.21406e-05
2.21614e-05
5.06357e-05
2.43713e-05
4.89774e-05
2.68302e-05
4.71417e-05
2.96705e-05
4.51074e-05
3.27228e-05
4.28362e-05
3.63781e-05
4.03054e-05
3.98353e-05
4.44642e-05
3.74488e-05
6.83514e-05
-4.45543e-07
6.82719e-05
1.07403e-06
6.81603e-05
2.09472e-06
6.80072e-05
2.99228e-06
6.78116e-05
3.80446e-06
6.75727e-05
4.56693e-06
6.729e-05
5.30746e-06
6.69628e-05
6.04058e-06
6.65899e-05
6.77752e-06
6.617e-05
7.52757e-06
6.57016e-05
8.29952e-06
6.51825e-05
9.10203e-06
6.46105e-05
9.94427e-06
6.39827e-05
1.08366e-05
6.32957e-05
1.179e-05
6.25458e-05
1.28153e-05
6.17287e-05
1.39284e-05
6.08381e-05
1.51485e-05
5.98665e-05
1.64916e-05
5.88057e-05
1.79798e-05
5.76466e-05
1.96323e-05
5.6378e-05
2.14835e-05
5.49872e-05
2.35521e-05
5.34585e-05
2.59001e-05
5.17748e-05
2.85138e-05
4.99125e-05
3.15329e-05
4.78499e-05
3.47853e-05
4.55496e-05
3.86785e-05
4.29871e-05
4.23978e-05
4.73531e-05
4.00982e-05
7.15352e-05
-3.77559e-07
7.14536e-05
1.1556e-06
7.13392e-05
2.20914e-06
7.11826e-05
3.14885e-06
7.09829e-05
4.0042e-06
7.07393e-05
4.81055e-06
7.04512e-05
5.59554e-06
7.01178e-05
6.37393e-06
6.97381e-05
7.15723e-06
6.93107e-05
7.95503e-06
6.88338e-05
8.77643e-06
6.83053e-05
9.63047e-06
6.77229e-05
1.05267e-05
6.70836e-05
1.14758e-05
6.6384e-05
1.24896e-05
6.56203e-05
1.3579e-05
6.4788e-05
1.47607e-05
6.38811e-05
1.60555e-05
6.2892e-05
1.74807e-05
6.18126e-05
1.90592e-05
6.06336e-05
2.08113e-05
5.93438e-05
2.27733e-05
5.79306e-05
2.49653e-05
5.63781e-05
2.74525e-05
5.46696e-05
3.02224e-05
5.27813e-05
3.34211e-05
5.06916e-05
3.6875e-05
4.83636e-05
4.10065e-05
4.57717e-05
4.49897e-05
5.02712e-05
4.28536e-05
7.48265e-05
-3.08934e-07
7.47429e-05
1.23915e-06
7.46255e-05
2.32654e-06
7.44653e-05
3.30903e-06
7.42613e-05
4.20825e-06
7.40126e-05
5.05918e-06
7.37188e-05
5.88935e-06
7.3379e-05
6.71373e-06
7.29921e-05
7.54414e-06
7.25567e-05
8.39049e-06
7.20709e-05
9.2622e-06
7.15327e-05
1.01687e-05
7.09395e-05
1.11198e-05
7.02885e-05
1.21269e-05
6.9576e-05
1.32021e-05
6.87981e-05
1.43569e-05
6.79504e-05
1.56084e-05
6.70267e-05
1.69791e-05
6.60198e-05
1.84876e-05
6.49214e-05
2.01576e-05
6.37222e-05
2.20105e-05
6.2411e-05
2.40845e-05
6.09753e-05
2.6401e-05
5.93993e-05
2.90286e-05
5.76661e-05
3.19556e-05
5.57524e-05
3.53348e-05
5.36364e-05
3.8991e-05
5.1282e-05
4.33608e-05
4.86627e-05
4.76091e-05
5.32155e-05
4.57184e-05
7.82309e-05
-2.39742e-07
7.81454e-05
1.32469e-06
7.80249e-05
2.44702e-06
7.78609e-05
3.47299e-06
7.76523e-05
4.41683e-06
7.73984e-05
5.31311e-06
7.70986e-05
6.1892e-06
7.6752e-05
7.06032e-06
7.63575e-05
7.93863e-06
7.59136e-05
8.83434e-06
7.54186e-05
9.75722e-06
7.48702e-05
1.0717e-05
7.42659e-05
1.17241e-05
7.36027e-05
1.27901e-05
7.2877e-05
1.39278e-05
7.20846e-05
1.51493e-05
7.1221e-05
1.6472e-05
7.02803e-05
1.79199e-05
6.92551e-05
1.95128e-05
6.81372e-05
2.12754e-05
6.69175e-05
2.32302e-05
6.55847e-05
2.54173e-05
6.41263e-05
2.78594e-05
6.25265e-05
3.06283e-05
6.07688e-05
3.37134e-05
5.883e-05
3.72736e-05
5.66884e-05
4.11327e-05
5.43088e-05
4.57404e-05
5.16636e-05
5.02542e-05
5.61833e-05
4.86958e-05
8.17542e-05
-1.69678e-07
8.16666e-05
1.41227e-06
8.15429e-05
2.57068e-06
8.1375e-05
3.64087e-06
8.11617e-05
4.63014e-06
8.09023e-05
5.57258e-06
8.05961e-05
6.4954e-06
8.02423e-05
7.41407e-06
7.98399e-05
8.34109e-06
7.93872e-05
9.287e-06
7.88825e-05
1.02619e-05
7.83235e-05
1.1276e-05
7.77077e-05
1.234e-05
7.70318e-05
1.3466e-05
7.62924e-05
1.46673e-05
7.54852e-05
1.59565e-05
7.46054e-05
1.73518e-05
7.3647e-05
1.88782e-05
7.2603e-05
2.05568e-05
7.14653e-05
2.24131e-05
7.02246e-05
2.44709e-05
6.88697e-05
2.67722e-05
6.73883e-05
2.93408e-05
6.57647e-05
3.22519e-05
6.39823e-05
3.54957e-05
6.20186e-05
3.92373e-05
5.98518e-05
4.32994e-05
5.74479e-05
4.81444e-05
5.47784e-05
5.29236e-05
5.91725e-05
5.17892e-05
8.5402e-05
-9.84522e-08
8.53123e-05
1.50196e-06
8.51854e-05
2.69762e-06
8.50134e-05
3.81283e-06
8.47952e-05
4.84839e-06
8.45299e-05
5.83785e-06
8.4217e-05
6.80826e-06
8.38558e-05
7.77532e-06
8.3445e-05
8.75189e-06
8.29831e-05
9.74887e-06
8.24683e-05
1.07767e-05
8.18983e-05
1.1846e-05
8.12704e-05
1.29679e-05
8.05815e-05
1.41549e-05
7.98279e-05
1.54209e-05
7.90053e-05
1.67791e-05
7.81088e-05
1.82483e-05
7.71324e-05
1.98547e-05
7.60691e-05
2.16201e-05
7.49109e-05
2.35713e-05
7.36487e-05
2.57332e-05
7.22713e-05
2.81496e-05
7.07664e-05
3.08457e-05
6.91186e-05
3.38997e-05
6.73115e-05
3.73029e-05
6.53229e-05
4.12258e-05
6.31312e-05
4.54911e-05
6.07036e-05
5.05721e-05
5.8011e-05
5.56162e-05
6.2181e-05
5.50025e-05
8.91802e-05
-2.63157e-08
8.90884e-05
1.59378e-06
8.89581e-05
2.82795e-06
8.87819e-05
3.98902e-06
8.85585e-05
5.0718e-06
8.82871e-05
6.1092e-06
8.79673e-05
7.12809e-06
8.75982e-05
8.14442e-06
8.71786e-05
9.17144e-06
8.67071e-05
1.02204e-05
8.61818e-05
1.13021e-05
8.56002e-05
1.24275e-05
8.49598e-05
1.36083e-05
8.42573e-05
1.48574e-05
8.34891e-05
1.61891e-05
8.26507e-05
1.76175e-05
8.17369e-05
1.91621e-05
8.07418e-05
2.08498e-05
7.96586e-05
2.27032e-05
7.84795e-05
2.47504e-05
7.71951e-05
2.70175e-05
7.57947e-05
2.955e-05
7.42659e-05
3.23745e-05
7.25935e-05
3.55721e-05
7.07613e-05
3.91351e-05
6.87477e-05
4.32394e-05
6.65312e-05
4.77075e-05
6.40803e-05
5.3023e-05
6.13655e-05
5.8331e-05
6.52073e-05
5.83393e-05
9.30948e-05
4.61086e-08
9.30008e-05
1.68778e-06
9.28669e-05
2.96179e-06
9.26863e-05
4.16962e-06
9.24576e-05
5.30056e-06
9.21799e-05
6.38686e-06
9.18528e-05
7.45519e-06
9.14755e-05
8.52174e-06
9.10468e-05
9.60012e-06
9.05652e-05
1.0702e-05
9.00288e-05
1.18385e-05
8.94353e-05
1.30211e-05
8.87818e-05
1.42618e-05
8.80652e-05
1.5574e-05
8.72818e-05
1.69726e-05
8.64269e-05
1.84723e-05
8.54953e-05
2.00937e-05
8.44809e-05
2.18642e-05
8.33773e-05
2.38069e-05
8.21765e-05
2.59512e-05
8.08695e-05
2.83245e-05
7.94454e-05
3.09741e-05
7.7892e-05
3.39279e-05
7.61945e-05
3.72695e-05
7.43368e-05
4.09928e-05
7.22979e-05
4.52783e-05
7.00567e-05
4.99488e-05
6.75828e-05
5.54969e-05
6.48464e-05
6.10673e-05
6.825e-05
6.18037e-05
9.71517e-05
1.19759e-07
9.70555e-05
1.78401e-06
9.6918e-05
3.09924e-06
9.67329e-05
4.35477e-06
9.64985e-05
5.53489e-06
9.62143e-05
6.67112e-06
9.58796e-05
7.78988e-06
9.54937e-05
8.90762e-06
9.50555e-05
1.00383e-05
9.45634e-05
1.11941e-05
9.40155e-05
1.23864e-05
9.34094e-05
1.36272e-05
9.27424e-05
1.49288e-05
9.20112e-05
1.63052e-05
9.12119e-05
1.77718e-05
9.034e-05
1.93442e-05
8.93899e-05
2.10439e-05
8.83555e-05
2.28985e-05
8.72307e-05
2.49317e-05
8.60077e-05
2.71743e-05
8.46773e-05
2.96549e-05
8.32289e-05
3.24225e-05
8.16504e-05
3.55064e-05
7.99272e-05
3.89927e-05
7.80435e-05
4.28765e-05
7.5979e-05
4.73428e-05
7.37127e-05
5.22151e-05
7.12159e-05
5.79937e-05
6.84584e-05
6.38248e-05
7.13082e-05
6.54003e-05
0.000101357
1.93912e-07
0.000101259
1.88251e-06
0.000101118
3.24043e-06
0.000100928
4.54466e-06
0.000100688
5.77502e-06
0.000100397
6.96221e-06
0.000100054
8.13245e-06
9.96591e-05
9.30242e-06
9.9211e-05
1.04865e-05
9.87079e-05
1.16971e-05
9.8148e-05
1.29463e-05
9.75289e-05
1.42463e-05
9.68478e-05
1.56099e-05
9.61013e-05
1.70517e-05
9.52856e-05
1.85875e-05
9.43959e-05
2.02338e-05
9.34265e-05
2.20133e-05
9.23716e-05
2.39534e-05
9.1225e-05
2.60783e-05
8.9979e-05
2.84203e-05
8.86245e-05
3.10093e-05
8.71511e-05
3.3896e-05
8.55468e-05
3.71107e-05
8.37973e-05
4.07422e-05
8.18871e-05
4.47867e-05
7.97964e-05
4.94335e-05
7.75047e-05
5.45068e-05
7.49849e-05
6.05136e-05
7.22065e-05
6.66032e-05
7.43811e-05
6.91335e-05
0.000105718
2.68e-07
0.000105617
1.98331e-06
0.000105472
3.38551e-06
0.000105277
4.73947e-06
0.000105031
6.02116e-06
0.000104733
7.26043e-06
0.000104382
8.48323e-06
0.000103978
9.7065e-06
0.00010352
1.0945e-05
0.000103005
1.22116e-05
0.000102433
1.35187e-05
0.0001018
1.48789e-05
0.000101104
1.63058e-05
0.000100342
1.7814e-05
9.95091e-05
1.94203e-05
9.86009e-05
2.1142e-05
9.76115e-05
2.30027e-05
9.65353e-05
2.50297e-05
9.53661e-05
2.72474e-05
9.40964e-05
2.969e-05
9.27172e-05
3.23885e-05
9.12181e-05
3.53951e-05
8.95872e-05
3.87415e-05
8.78107e-05
4.25187e-05
8.58732e-05
4.67242e-05
8.37559e-05
5.15509e-05
8.14384e-05
5.68243e-05
7.88952e-05
6.30567e-05
7.60959e-05
6.94026e-05
7.74685e-05
7.30085e-05
0.00011024
3.42748e-07
0.000110137
2.08654e-06
0.000109988
3.53461e-06
0.000109788
4.93937e-06
0.000109536
6.27354e-06
0.00010923
7.56602e-06
0.000108871
8.84253e-06
0.000108457
1.01202e-05
0.000107988
1.14143e-05
0.000107462
1.27379e-05
0.000106876
1.41041e-05
0.000106229
1.55257e-05
0.000105518
1.70169e-05
0.000104739
1.85929e-05
0.000103889
2.02708e-05
0.000102961
2.20696e-05
0.000101951
2.4013e-05
0.000100853
2.61279e-05
9.96605e-05
2.84398e-05
9.83664e-05
3.09841e-05
9.69616e-05
3.37932e-05
9.5436e-05
3.69208e-05
9.37779e-05
4.03996e-05
9.19736e-05
4.4323e-05
9.00082e-05
4.86896e-05
8.78634e-05
5.36956e-05
8.55196e-05
5.91681e-05
8.29527e-05
6.56235e-05
8.01322e-05
7.22231e-05
8.05701e-05
7.70306e-05
0.000114931
4.18512e-07
0.000114826
2.19231e-06
0.000114672
3.68786e-06
0.000114467
5.14457e-06
0.000114208
6.5324e-06
0.000113895
7.87928e-06
0.000113527
9.21067e-06
0.000113103
1.0544e-05
0.000112623
1.18947e-05
0.000112084
1.32766e-05
0.000111485
1.47029e-05
0.000110824
1.61872e-05
0.000110097
1.77439e-05
0.000109301
1.93889e-05
0.000108432
2.11399e-05
0.000107484
2.30174e-05
0.000106452
2.5045e-05
0.000105331
2.72488e-05
0.000104115
2.96561e-05
0.000102795
3.23034e-05
0.000101364
3.52243e-05
9.98114e-05
3.84737e-05
9.81252e-05
4.20858e-05
9.62924e-05
4.61559e-05
9.42983e-05
5.06837e-05
9.21255e-05
5.58684e-05
8.97546e-05
6.1539e-05
8.71635e-05
6.82146e-05
8.43215e-05
7.50651e-05
8.36862e-05
8.12054e-05
0.000119798
4.94325e-07
0.00011969
2.30071e-06
0.000119532
3.84542e-06
0.000119321
5.35528e-06
0.000119056
6.79798e-06
0.000118735
8.20048e-06
0.000118357
9.58797e-06
0.000117923
1.09781e-05
0.000117431
1.23868e-05
0.00011688
1.38281e-05
0.000116267
1.53158e-05
0.00011559
1.6864e-05
0.000114846
1.84875e-05
0.000114033
2.02028e-05
0.000113144
2.20283e-05
0.000112175
2.39862e-05
0.000111121
2.60993e-05
0.000109977
2.83933e-05
0.000108735
3.08972e-05
0.00010739
3.36487e-05
0.000105932
3.66824e-05
0.000104351
4.00547e-05
0.000102636
4.38009e-05
0.000100774
4.80181e-05
9.87502e-05
5.27073e-05
9.65486e-05
5.80699e-05
9.415e-05
6.39377e-05
9.15341e-05
7.08305e-05
8.867e-05
7.79292e-05
8.68171e-05
8.55391e-05
0.000124848
5.72149e-07
0.000124736
2.41189e-06
0.000124574
4.00746e-06
0.000124358
5.57169e-06
0.000124085
7.07054e-06
0.000123756
8.52992e-06
0.000123369
9.97478e-06
0.000122924
1.1423e-05
0.00012242
1.28908e-05
0.000121855
1.43928e-05
0.000121228
1.59433e-05
0.000120535
1.75566e-05
0.000119775
1.92482e-05
0.000118942
2.10353e-05
0.000118033
2.2937e-05
0.000117043
2.49768e-05
0.000115965
2.71766e-05
0.000114797
2.9562e-05
0.00011353
3.21637e-05
0.000112158
3.50207e-05
0.000110672
3.81684e-05
0.000109062
4.16647e-05
0.000107317
4.55458e-05
0.000105425
4.99105e-05
0.000103371
5.47612e-05
0.00010114
6.03011e-05
9.87126e-05
6.63648e-05
9.60712e-05
7.34719e-05
9.31844e-05
8.0816e-05
8.99633e-05
9.00382e-05
0.000130087
6.49609e-07
0.000129973
2.52587e-06
0.000129807
4.17417e-06
0.000129584
5.79405e-06
0.000129305
7.35033e-06
0.000128967
8.86789e-06
0.00012857
1.03714e-05
0.000128114
1.1879e-05
0.000127597
1.34073e-05
0.000127019
1.49714e-05
0.000126376
1.65858e-05
0.000125667
1.82656e-05
0.000124889
2.00269e-05
0.000124037
2.18872e-05
0.000123107
2.3867e-05
0.000122093
2.59901e-05
0.000120992
2.82777e-05
0.000119799
3.07558e-05
0.000118506
3.34566e-05
0.000117106
3.64202e-05
0.000115591
3.96832e-05
0.000113952
4.33044e-05
0.000112176
4.73213e-05
0.000110253
5.18339e-05
0.000108168
5.68463e-05
0.000105906
6.25628e-05
0.00010345
6.88213e-05
0.000100782
7.61396e-05
9.78718e-05
8.37261e-05
9.31255e-05
9.47096e-05
0.000135526
7.27495e-07
0.000135409
2.64277e-06
0.000135237
4.34573e-06
0.000135009
6.0226e-06
0.000134721
7.63764e-06
0.000134374
9.2147e-06
0.000133968
1.07782e-05
0.0001335
1.23465e-05
0.000132971
1.39367e-05
0.000132378
1.55642e-05
0.00013172
1.7244e-05
0.000130993
1.89918e-05
0.000130196
2.08241e-05
0.000129324
2.27595e-05
0.000128372
2.48193e-05
0.000127335
2.70268e-05
0.00012621
2.9403e-05
0.00012499
3.19752e-05
0.00012367
3.47766e-05
0.000122242
3.78482e-05
0.000120698
4.12276e-05
0.000119028
4.49747e-05
0.000117221
4.91282e-05
0.000115265
5.37892e-05
0.000113148
5.89634e-05
0.000110855
6.48557e-05
0.000108369
7.13079e-05
0.000105674
7.88345e-05
0.00010274
8.66603e-05
9.63047e-05
9.95606e-05
0.00014117
8.05518e-07
0.00014105
2.76277e-06
0.000140873
4.52236e-06
0.000140638
6.25758e-06
0.000140343
7.93273e-06
0.000139987
9.57067e-06
0.00013957
1.11956e-05
0.00013909
1.28261e-05
0.000138548
1.44795e-05
0.00013794
1.61718e-05
0.000137266
1.79185e-05
0.000136522
1.97358e-05
0.000135705
2.16408e-05
0.000134811
2.3653e-05
0.000133836
2.57945e-05
0.000132775
2.80875e-05
0.000131625
3.05533e-05
0.000130379
3.3221e-05
0.000129031
3.61243e-05
0.000127574
3.93053e-05
0.000126
4.28023e-05