/*--------------------------------*- C++ -*----------------------------------*\
| =========                 |                                                 |
| \\      /  F ield         | OpenFOAM: The Open Source CFD Toolbox           |
|  \\    /   O peration     | Version:  2506                                  |
|   \\  /    A nd           | Website:  www.openfoam.com                      |
|    \\/     M anipulation  |                                                 |
\*---------------------------------------------------------------------------*/
FoamFile
{
    version     2.0;
    format      ascii;
    arch        "LSB;label=32;scalar=64";
    class       volVectorField;
    location    "6000";
    object      U;
}
// * * * * * * * * * * * * * * * * * * * * * * * * * * * * * * * * * * * * * //

dimensions      [0 1 -1 0 0 0 0];

internalField   nonuniform List<vector> 
40788
(
(0.518138 -0.000920935 0)
(0.520691 -2.53194e-06 0)
(0.518304 2.25707e-05 0)
(0.511066 1.74368e-05 0)
(0.504135 2.01298e-05 0)
(0.496488 2.16932e-05 0)
(0.488265 2.32137e-05 0)
(0.479477 2.49536e-05 0)
(0.470089 2.67695e-05 0)
(0.46008 2.87426e-05 0)
(0.44941 3.08838e-05 0)
(0.438034 3.32268e-05 0)
(0.425898 3.5792e-05 0)
(0.412945 3.86135e-05 0)
(0.399081 4.17784e-05 0)
(0.384205 4.52856e-05 0)
(0.368243 4.90504e-05 0)
(0.351153 5.30071e-05 0)
(0.332827 5.75747e-05 0)
(0.313155 6.23374e-05 0)
(0.29193 6.8116e-05 0)
(0.269167 7.32419e-05 0)
(0.244494 8.06804e-05 0)
(0.218321 8.44937e-05 0)
(0.189644 9.54333e-05 0)
(0.160351 9.19408e-05 0)
(0.127083 0.00011339 0)
(0.0969937 8.27394e-05 0)
(0.0578173 0.00014216 0)
(0.0352468 2.14515e-05 0)
(1.57671 -0.00259492 0)
(1.58287 -4.10605e-05 0)
(1.57531 0.000197939 0)
(1.55678 0.000226111 0)
(1.5377 0.00024784 0)
(1.51671 0.000271467 0)
(1.49399 0.000294607 0)
(1.46959 0.000319 0)
(1.44342 0.000344749 0)
(1.41544 0.000372303 0)
(1.38553 0.000402021 0)
(1.35356 0.000434305 0)
(1.31938 0.000469469 0)
(1.28282 0.000508305 0)
(1.24361 0.000551854 0)
(1.20145 0.000599903 0)
(1.15613 0.000651476 0)
(1.10751 0.000706969 0)
(1.05527 0.000769085 0)
(0.999041 0.000837958 0)
(0.938243 0.000915129 0)
(0.872803 0.000997099 0)
(0.801721 0.00108957 0)
(0.725834 0.00118009 0)
(0.642628 0.00128712 0)
(0.556467 0.00136636 0)
(0.459198 0.00148388 0)
(0.367992 0.00149128 0)
(0.253151 0.00162353 0)
(0.177669 0.00140875 0)
(2.66611 -0.00386112 0)
(2.67255 -8.9986e-05 0)
(2.66067 0.000513575 0)
(2.63396 0.000621138 0)
(2.60476 0.000689086 0)
(2.57249 0.000757569 0)
(2.53734 0.000825917 0)
(2.4994 0.000897041 0)
(2.45859 0.000971971 0)
(2.4148 0.00105193 0)
(2.36787 0.00113799 0)
(2.31759 0.00123131 0)
(2.26372 0.00133285 0)
(2.206 0.0014451 0)
(2.14395 0.00157103 0)
(2.07711 0.00170983 0)
(2.00512 0.00185895 0)
(1.92772 0.00202 0)
(1.8444 0.0022 0)
(1.7545 0.00240106 0)
(1.65707 0.00262527 0)
(1.55185 0.00286802 0)
(1.43731 0.00313708 0)
(1.31432 0.00341527 0)
(1.17931 0.0037229 0)
(1.03787 0.00399936 0)
(0.87885 0.00431232 0)
(0.725303 0.00447355 0)
(0.536859 0.00471044 0)
(0.400131 0.00451664 0)
(3.72845 -0.00477795 0)
(3.73286 -0.00010215 0)
(3.71869 0.000934571 0)
(3.68739 0.00118304 0)
(3.65119 0.00133393 0)
(3.61068 0.00147405 0)
(3.56623 0.00161369 0)
(3.51799 0.00175787 0)
(3.46589 0.00190935 0)
(3.40978 0.00207067 0)
(3.34947 0.00224405 0)
(3.2847 0.00243183 0)
(3.21514 0.00263606 0)
(3.14043 0.0028622 0)
(3.05993 0.00311614 0)
(2.973 0.00339592 0)
(2.87919 0.00369693 0)
(2.77809 0.00402307 0)
(2.66897 0.00438785 0)
(2.55087 0.00479729 0)
(2.42252 0.00525367 0)
(2.28335 0.00575322 0)
(2.13135 0.00630441 0)
(1.96712 0.00688998 0)
(1.78634 0.0075226 0)
(1.59469 0.00814074 0)
(1.37949 0.00877384 0)
(1.16586 0.00925397 0)
(0.908763 0.00964677 0)
(0.705459 0.00967089 0)
(4.66205 -0.00539874 0)
(4.66377 -6.45423e-05 0)
(4.64973 0.00139653 0)
(4.61738 0.00183806 0)
(4.57783 0.00211146 0)
(4.53274 0.00234969 0)
(4.48278 0.00258382 0)
(4.42822 0.00282373 0)
(4.36902 0.00307499 0)
(4.30504 0.00334196 0)
(4.23607 0.0036285 0)
(4.16181 0.00393862 0)
(4.0819 0.00427589 0)
(3.9959 0.0046501 0)
(3.90305 0.00507097 0)
(3.80261 0.0055345 0)
(3.69404 0.00603424 0)
(3.57679 0.00657783 0)
(3.44995 0.00718737 0)
(3.31229 0.00787483 0)
(3.1623 0.00864286 0)
(2.99905 0.00949127 0)
(2.82018 0.0104297 0)
(2.62573 0.0114459 0)
(2.41092 0.01254 0)
(2.18067 0.0136632 0)
(1.92169 0.0147802 0)
(1.65825 0.0157869 0)
(1.34471 0.0164776 0)
(1.07855 0.0169617 0)
(5.42154 -0.00578525 0)
(5.42057 1.12004e-05 0)
(5.40776 0.00185151 0)
(5.37641 0.00252044 0)
(5.33614 0.00294932 0)
(5.28919 0.00330873 0)
(5.23657 0.00365595 0)
(5.17869 0.00400886 0)
(5.11554 0.00437703 0)
(5.04706 0.00476722 0)
(4.97302 0.00518534 0)
(4.89313 0.00563748 0)
(4.807 0.00612919 0)
(4.71417 0.00667549 0)
(4.61382 0.00728961 0)
(4.50518 0.00796504 0)
(4.38768 0.00869487 0)
(4.26062 0.00949174 0)
(4.12299 0.0103881 0)
(3.97339 0.0114029 0)
(3.81016 0.0125393 0)
(3.63213 0.0138042 0)
(3.43667 0.01521 0)
(3.22335 0.0167543 0)
(2.9871 0.0184241 0)
(2.73186 0.0201964 0)
(2.44423 0.0219581 0)
(2.14627 0.0237043 0)
(1.79366 0.0248921 0)
(1.47829 0.0261222 0)
(6.03442 -0.0059972 0)
(6.03039 0.00011834 0)
(6.01858 0.00228711 0)
(5.98911 0.00320404 0)
(5.94959 0.00381706 0)
(5.90237 0.00432105 0)
(5.8487 0.00479999 0)
(5.78911 0.00528238 0)
(5.7237 0.00578295 0)
(5.65242 0.00631137 0)
(5.57512 0.00687609 0)
(5.49149 0.00748563 0)
(5.40117 0.00814787 0)
(5.30366 0.00888072 0)
(5.19838 0.0097013 0)
(5.0846 0.0106059 0)
(4.96153 0.0115882 0)
(4.82836 0.0126644 0)
(4.68402 0.0138781 0)
(4.52698 0.0152536 0)
(4.35557 0.0167958 0)
(4.16845 0.018522 0)
(3.96284 0.0204481 0)
(3.73794 0.0225859 0)
(3.48859 0.0249091 0)
(3.21784 0.027432 0)
(2.91248 0.0299563 0)
(2.59219 0.0326071 0)
(2.21463 0.0344641 0)
(1.86446 0.0366954 0)
(6.53925 -0.00606816 0)
(6.53218 0.000256051 0)
(6.52072 0.00270943 0)
(6.49318 0.00388247 0)
(6.45516 0.00470051 0)
(6.40867 0.00537061 0)
(6.35504 0.0060001 0)
(6.29487 0.00662902 0)
(6.22832 0.00727785 0)
(6.15545 0.00795965 0)
(6.0761 0.00868594 0)
(5.99001 0.00946799 0)
(5.89683 0.0103163 0)
(5.79607 0.0112517 0)
(5.68729 0.0122946 0)
(5.56985 0.0134444 0)
(5.44279 0.0146974 0)
(5.30525 0.0160741 0)
(5.15607 0.0176246 0)
(4.99403 0.0193825 0)
(4.81732 0.0213607 0)
(4.62435 0.0235852 0)
(4.41224 0.0260736 0)
(4.17996 0.0288558 0)
(3.92231 0.0318922 0)
(3.64162 0.0352435 0)
(3.32498 0.0386205 0)
(2.98992 0.0423025 0)
(2.59614 0.044964 0)
(2.22124 0.0483966 0)
(6.96315 -0.00604061 0)
(6.95378 0.000429595 0)
(6.94209 0.00312573 0)
(6.91603 0.00455012 0)
(6.87972 0.00558551 0)
(6.83459 0.00643976 0)
(6.78182 0.00723803 0)
(6.72198 0.00803101 0)
(6.6553 0.00884443 0)
(6.58188 0.00969525 0)
(6.50161 0.0105988 0)
(6.41424 0.0115693 0)
(6.31945 0.0126201 0)
(6.21676 0.0137734 0)
(6.10572 0.0150517 0)
(5.98569 0.016461 0)
(5.85578 0.018002 0)
(5.71508 0.0196989 0)
(5.5624 0.0216073 0)
(5.3967 0.02377 0)
(5.21616 0.0262061 0)
(5.01916 0.028955 0)
(4.80283 0.032042 0)
(4.56577 0.0355127 0)
(4.30279 0.0393148 0)
(4.01563 0.0435618 0)
(3.69169 0.0478719 0)
(3.34665 0.0526944 0)
(2.94205 0.0562865 0)
(2.54911 0.0610937 0)
(7.32531 -0.00594712 0)
(7.31443 0.000638053 0)
(7.30214 0.00354609 0)
(7.27706 0.00520917 0)
(7.24238 0.00646433 0)
(7.19889 0.00751447 0)
(7.14749 0.00849678 0)
(7.0886 0.00946959 0)
(7.02251 0.0104622 0)
(6.94935 0.0114962 0)
(6.86901 0.0125914 0)
(6.78128 0.0137644 0)
(6.68585 0.015032 0)
(6.58228 0.0164186 0)
(6.47005 0.0179489 0)
(6.34855 0.0196349 0)
(6.21696 0.0214822 0)
(6.07434 0.0235197 0)
(5.91948 0.0258064 0)
(5.7513 0.0283918 0)
(5.56803 0.0313071 0)
(5.36817 0.0346052 0)
(5.1489 0.0383161 0)
(4.90879 0.0425109 0)
(4.6425 0.0471266 0)
(4.35124 0.0523285 0)
(4.02268 0.057644 0)
(3.67098 0.0637044 0)
(3.2592 0.0683491 0)
(2.85301 0.0746877 0)
(7.63989 -0.00581334 0)
(7.62806 0.000877569 0)
(7.61507 0.00397725 0)
(7.59066 0.00586427 0)
(7.5574 0.00733575 0)
(7.51556 0.00858857 0)
(7.4657 0.00976673 0)
(7.40812 0.0109323 0)
(7.3431 0.0121169 0)
(7.27078 0.0133474 0)
(7.19101 0.0146476 0)
(7.1036 0.0160365 0)
(7.00828 0.017534 0)
(6.9046 0.0191682 0)
(6.79204 0.0209661 0)
(6.67 0.0229448 0)
(6.53766 0.0251146 0)
(6.39411 0.0275103 0)
(6.23816 0.0301951 0)
(6.06864 0.0332266 0)
(5.88382 0.0366446 0)
(5.68221 0.040514 0)
(5.46103 0.044873 0)
(5.21898 0.0498217 0)
(4.95066 0.0552856 0)
(4.65699 0.061493 0)
(4.32577 0.0678775 0)
(3.96984 0.0752683 0)
(3.55352 0.0810756 0)
(3.13777 0.0890966 0)
(7.9175 -0.00565317 0)
(7.90502 0.00113978 0)
(7.8918 0.00441753 0)
(7.86801 0.00652011 0)
(7.83587 0.00820527 0)
(7.79536 0.00966487 0)
(7.74686 0.0110451 0)
(7.69068 0.0124117 0)
(7.62698 0.0137989 0)
(7.55582 0.015238 0)
(7.47702 0.0167556 0)
(7.39042 0.0183723 0)
(7.29578 0.0201124 0)
(7.19259 0.0220077 0)
(7.08037 0.0240876 0)
(6.95848 0.026374 0)
(6.82614 0.0288818 0)
(6.68245 0.031652 0)
(6.52624 0.0347536 0)
(6.3563 0.0382521 0)
(6.17094 0.0421952 0)
(5.96863 0.0466616 0)
(5.74664 0.0516956 0)
(5.50359 0.0574241 0)
(5.23429 0.0637699 0)
(4.9394 0.0710242 0)
(4.60698 0.0785352 0)
(4.24847 0.0873254 0)
(3.82977 0.094396 0)
(3.40721 0.104244 0)
(8.16626 -0.00546836 0)
(8.15352 0.0014192 0)
(8.14044 0.00486725 0)
(8.11727 0.00717951 0)
(8.08605 0.00907636 0)
(8.04664 0.0107458 0)
(7.9993 0.0123346 0)
(7.94438 0.0139095 0)
(7.88192 0.0155077 0)
(7.81191 0.0171634 0)
(7.73425 0.018907 0)
(7.64877 0.0207619 0)
(7.55514 0.0227565 0)
(7.45288 0.0249251 0)
(7.34149 0.0273003 0)
(7.22032 0.0299089 0)
(7.08856 0.0327699 0)
(6.94533 0.0359305 0)
(6.78951 0.039466 0)
(6.61987 0.0434505 0)
(6.43475 0.0479398 0)
(6.2326 0.0530267 0)
(6.01074 0.0587622 0)
(5.7677 0.0653015 0)
(5.49848 0.0725636 0)
(5.20339 0.0809016 0)
(4.87103 0.0895934 0)
(4.51133 0.0998454 0)
(4.09216 0.108287 0)
(3.66457 0.120057 0)
(8.39231 -0.00525966 0)
(8.37953 0.00171093 0)
(8.36658 0.0053215 0)
(8.34397 0.00784354 0)
(8.31358 0.00995352 0)
(8.27521 0.0118367 0)
(8.22901 0.0136383 0)
(8.17523 0.0154264 0)
(8.11392 0.0172427 0)
(8.04502 0.0191235 0)
(7.9685 0.0211016 0)
(7.88415 0.023203 0)
(7.79163 0.0254598 0)
(7.69056 0.0279113 0)
(7.58034 0.030594 0)
(7.46028 0.0335385 0)
(7.32954 0.0367678 0)
(7.18725 0.0403339 0)
(7.03232 0.0443197 0)
(6.86355 0.0488079 0)
(6.67928 0.0538627 0)
(6.47797 0.0595916 0)
(6.257 0.0660533 0)
(6.01482 0.073431 0)
(5.74658 0.0816416 0)
(5.45233 0.0911019 0)
(5.12117 0.101027 0)
(4.76173 0.112806 0)
(4.34373 0.122718 0)
(3.9129 0.136509 0)
(8.59992 -0.00502842 0)
(8.58709 0.00201221 0)
(8.57424 0.00578148 0)
(8.55213 0.00851337 0)
(8.52249 0.0108374 0)
(8.48508 0.0129368 0)
(8.43997 0.0149561 0)
(8.38734 0.0169643 0)
(8.3272 0.0190062 0)
(8.25948 0.0211194 0)
(8.18412 0.0233388 0)
(8.1009 0.0256945 0)
(8.00951 0.028222 0)
(7.90964 0.030964 0)
(7.80072 0.0339622 0)
(7.68205 0.0372545 0)
(7.55264 0.0408663 0)
(7.41165 0.0448528 0)
(7.25801 0.0493042 0)
(7.09053 0.0543128 0)
(6.9076 0.0599513 0)
(6.70768 0.066342 0)
(6.48819 0.0735527 0)
(6.24755 0.0817937 0)
(5.98106 0.0909827 0)
(5.68853 0.101599 0)
(5.35952 0.112804 0)
(5.00162 0.12616 0)
(4.58616 0.13764 0)
(4.15422 0.153552 0)
(8.79212 -0.00477853 0)
(8.77929 0.00232405 0)
(8.76651 0.00624898 0)
(8.74483 0.00919047 0)
(8.71587 0.0117292 0)
(8.67934 0.0140474 0)
(8.63527 0.0162885 0)
(8.58375 0.0185223 0)
(8.52478 0.020796 0)
(8.45828 0.0231489 0)
(8.38413 0.025618 0)
(8.30213 0.0282369 0)
(8.21197 0.0310431 0)
(8.11331 0.0340825 0)
(8.00568 0.0374032 0)
(7.88849 0.0410524 0)
(7.76062 0.0450588 0)
(7.6212 0.0494795 0)
(7.46915 0.0544113 0)
(7.3033 0.0599559 0)
(7.12209 0.0661952 0)
(6.92397 0.0732662 0)
(6.70645 0.0812467 0)
(6.4679 0.0903742 0)
(6.20376 0.100569 0)
(5.91368 0.112371 0)
(5.5876 0.124897 0)
(5.23231 0.139873 0)
(4.82052 0.153011 0)
(4.38943 0.171122 0)
(8.97131 -0.0045134 0)
(8.95851 0.00264682 0)
(8.94579 0.00672529 0)
(8.92449 0.00987629 0)
(8.89614 0.0126307 0)
(8.86042 0.0151697 0)
(8.81731 0.0176363 0)
(8.76687 0.0201006 0)
(8.70905 0.0226118 0)
(8.64376 0.0252111 0)
(8.57086 0.0279374 0)
(8.49013 0.0308275 0)
(8.40128 0.0339213 0)
(8.30393 0.0372674 0)
(8.19763 0.0409177 0)
(8.08189 0.0449298 0)
(7.9557 0.0493407 0)
(7.81801 0.0542084 0)
(7.66777 0.0596345 0)
(7.50381 0.0657299 0)
(7.3246 0.0725859 0)
(7.12863 0.0803547 0)
(6.91344 0.0891243 0)
(6.67742 0.0991597 0)
(6.41612 0.110385 0)
(6.12908 0.1234 0)
(5.80658 0.137284 0)
(5.45478 0.15392 0)
(5.04758 0.16879 0)
(4.61902 0.18917 0)
(9.13939 -0.00423527 0)
(9.12666 0.00298047 0)
(9.11398 0.00721144 0)
(9.09303 0.0105722 0)
(9.06523 0.0135434 0)
(9.03024 0.0163054 0)
(8.98803 0.0190008 0)
(8.93861 0.0216999 0)
(8.88191 0.024454 0)
(8.81781 0.0273058 0)
(8.74616 0.0302963 0)
(8.66674 0.033465 0)
(8.57923 0.0368547 0)
(8.48326 0.0405167 0)
(8.37839 0.0445058 0)
(8.2641 0.048887 0)
(8.13963 0.0537099 0)
(8.00379 0.0590357 0)
(7.85549 0.0649689 0)
(7.69362 0.0716289 0)
(7.51663 0.0791167 0)
(7.32306 0.0875994 0)
(7.1105 0.0971762 0)
(6.87735 0.108139 0)
(6.61928 0.120418 0)
(6.33576 0.134671 0)
(6.01737 0.149945 0)
(5.66976 0.168276 0)
(5.26792 0.184945 0)
(4.84327 0.207658 0)
(9.29789 -0.00394603 0)
(9.28526 0.00332477 0)
(9.27261 0.00770831 0)
(9.25197 0.0112794 0)
(9.22467 0.0144689 0)
(9.19036 0.0174561 0)
(9.14898 0.0203833 0)
(9.10053 0.0233215 0)
(9.0449 0.0263233 0)
(8.98197 0.0294334 0)
(8.91156 0.0326945 0)
(8.83343 0.036149 0)
(8.74729 0.0398424 0)
(8.65275 0.043829 0)
(8.54936 0.0481664 0)
(8.43659 0.0529245 0)
(8.31384 0.0581655 0)
(8.1799 0.0639594 0)
(8.03365 0.0704111 0)
(7.87398 0.0776486 0)
(7.69938 0.0857821 0)
(7.50841 0.094994 0)
(7.29871 0.105395 0)
(7.0687 0.117303 0)
(6.81418 0.130657 0)
(6.53455 0.146171 0)
(6.22071 0.162864 0)
(5.87787 0.18292 0)
(5.48201 0.201443 0)
(5.0624 0.226545 0)
(9.44806 -0.00364725 0)
(9.43557 0.00367952 0)
(9.42295 0.00821669 0)
(9.40258 0.0119992 0)
(9.37574 0.0154086 0)
(9.34204 0.0186233 0)
(9.30144 0.0217854 0)
(9.25389 0.0249665 0)
(9.19929 0.0282207 0)
(9.13748 0.0315944 0)
(9.06828 0.0351325 0)
(8.99145 0.0388795 0)
(8.90668 0.042884 0)
(8.81358 0.0472033 0)
(8.7117 0.0518984 0)
(8.60051 0.0570415 0)
(8.4795 0.0627077 0)
(8.34747 0.0689786 0)
(8.20333 0.0759592 0)
(8.04595 0.0837859 0)
(7.87385 0.092578 0)
(7.68562 0.102533 0)
(7.47895 0.113773 0)
(7.2523 0.126645 0)
(7.00156 0.141091 0)
(6.72612 0.157886 0)
(6.41717 0.176025 0)
(6.07957 0.197831 0)
(5.69023 0.218256 0)
(5.27656 0.245796 0)
(9.59094 -0.00334005 0)
(9.5786 0.00404454 0)
(9.56601 0.00873727 0)
(9.5459 0.0127327 0)
(9.51947 0.016364 0)
(9.48634 0.0198088 0)
(9.44646 0.0232088 0)
(9.39976 0.0266365 0)
(9.34612 0.0301476 0)
(9.28539 0.0337901 0)
(9.21738 0.0376108 0)
(9.14181 0.041657 0)
(9.0584 0.0459798 0)
(8.96674 0.0506396 0)
(8.8664 0.0557012 0)
(8.75682 0.0612378 0)
(8.63754 0.0673371 0)
(8.50744 0.0740929 0)
(8.36543 0.081612 0)
(8.21039 0.0900386 0)
(8.04087 0.0995015 0)
(7.85548 0.110213 0)
(7.65197 0.122307 0)
(7.42882 0.136156 0)
(7.18205 0.151714 0)
(6.91103 0.169808 0)
(6.60725 0.189415 0)
(6.27528 0.212994 0)
(5.89286 0.23536 0)
(5.48589 0.265375 0)
(9.72739 -0.00302536 0)
(9.71522 0.00441969 0)
(9.70267 0.00927065 0)
(9.68279 0.0134808 0)
(9.65674 0.0173364 0)
(9.62413 0.021014 0)
(9.58491 0.0246552 0)
(9.53901 0.0283332 0)
(9.48629 0.0321055 0)
(9.42659 0.0360218 0)
(9.35971 0.0401308 0)
(9.28539 0.0444823 0)
(9.2033 0.0491304 0)
(9.11308 0.0541382 0)
(9.01427 0.0595746 0)
(8.90631 0.0655137 0)
(8.78876 0.0720541 0)
(8.66059 0.0793026 0)
(8.52072 0.0873692 0)
(8.36805 0.096406 0)
(8.20115 0.106551 0)
(8.01866 0.118031 0)
(7.81838 0.130992 0)
(7.59884 0.145834 0)
(7.35618 0.162517 0)
(7.08977 0.181926 0)
(6.79136 0.203021 0)
(6.46531 0.228391 0)
(6.09016 0.252733 0)
(5.69047 0.285252 0)
(9.85813 -0.00270397 0)
(9.84616 0.00480488 0)
(9.83363 0.0098174 0)
(9.81398 0.0142446 0)
(9.78827 0.0183272 0)
(9.75615 0.0222406 0)
(9.71755 0.0261262 0)
(9.67239 0.0300583 0)
(9.62054 0.0340961 0)
(9.56182 0.038291 0)
(9.49603 0.0426938 0)
(9.42291 0.0473567 0)
(9.34212 0.0523366 0)
(9.25331 0.0576999 0)
(9.15601 0.0635191 0)
(9.04968 0.06987 0)
(8.93384 0.0768594 0)
(8.8076 0.0846082 0)
(8.66986 0.0932311 0)
(8.51956 0.102888 0)
(8.35529 0.113725 0)
(8.17572 0.125986 0)
(7.97873 0.139825 0)
(7.76288 0.155672 0)
(7.52441 0.173495 0)
(7.26273 0.194233 0)
(6.96986 0.216833 0)
(6.64996 0.244009 0)
(6.28234 0.270354 0)
(5.8904 0.305397 0)
(9.98379 -0.0023761 0)
(9.97202 0.00520006 0)
(9.95953 0.010378 0)
(9.94008 0.015025 0)
(9.9147 0.0193375 0)
(9.88303 0.02349 0)
(9.845 0.0276236 0)
(9.80054 0.0318137 0)
(9.7495 0.0361212 0)
(9.69172 0.0405996 0)
(9.62697 0.0453015 0)
(9.555 0.0502818 0)
(9.47548 0.0556 0)
(9.38804 0.0613257 0)
(9.29224 0.0675356 0)
(9.18752 0.0743074 0)
(9.07337 0.0817544 0)
(8.94904 0.0900109 0)
(8.81342 0.0991986 0)
(8.66546 0.109484 0)
(8.50381 0.121024 0)
(8.32718 0.134075 0)
(8.13349 0.148806 0)
(7.92136 0.165669 0)
(7.68714 0.184644 0)
(7.43028 0.206722 0)
(7.14305 0.230842 0)
(6.82946 0.259834 0)
(6.46957 0.288205 0)
(6.08575 0.325784 0)
(10.1049 -0.00204194 0)
(10.0933 0.00560526 0)
(10.0809 0.0109531 0)
(10.0616 0.0158227 0)
(10.0366 0.0203686 0)
(10.0053 0.0247638 0)
(9.96781 0.0291491 0)
(9.924 0.0336011 0)
(9.87373 0.0381828 0)
(9.81683 0.0429494 0)
(9.75308 0.0479558 0)
(9.68222 0.0532592 0)
(9.60392 0.0589222 0)
(9.51782 0.0650174 0)
(9.42347 0.0716255 0)
(9.32035 0.0788271 0)
(9.20789 0.0867407 0)
(9.08542 0.0955123 0)
(8.95188 0.105273 0)
(8.80624 0.116197 0)
(8.64719 0.128449 0)
(8.47347 0.142301 0)
(8.28308 0.157932 0)
(8.07467 0.175822 0)
(7.84473 0.195961 0)
(7.59272 0.219389 0)
(7.31119 0.245039 0)
(7.00403 0.275856 0)
(6.65201 0.306269 0)
(6.27658 0.346388 0)
(10.2219 -0.00170285 0)
(10.2106 0.00602041 0)
(10.1982 0.011543 0)
(10.1791 0.0166387 0)
(10.1543 0.0214216 0)
(10.1234 0.0260634 0)
(10.0864 0.0307043 0)
(10.0432 0.0354226 0)
(9.99369 0.0402829 0)
(9.93763 0.0453425 0)
(9.87483 0.0506587 0)
(9.80503 0.0562911 0)
(9.72791 0.0623052 0)
(9.64311 0.0687766 0)
(9.55018 0.0757903 0)
(9.44862 0.0834305 0)
(9.33783 0.0918194 0)
(9.21719 0.101115 0)
(9.08569 0.111458 0)
(8.94232 0.123028 0)
(8.78583 0.136001 0)
(8.61499 0.150662 0)
(8.42787 0.167204 0)
(8.22316 0.18613 0)
(7.99749 0.207442 0)
(7.75035 0.232229 0)
(7.47455 0.259419 0)
(7.17387 0.292064 0)
(6.8298 0.324532 0)
(6.46296 0.367188 0)
(10.3352 -0.00136048 0)
(10.3241 0.00644546 0)
(10.3117 0.0121483 0)
(10.2928 0.0174737 0)
(10.2683 0.0224977 0)
(10.2378 0.0273902 0)
(10.2013 0.032291 0)
(10.1587 0.0372798 0)
(10.1098 0.0424234 0)
(10.0545 0.0477811 0)
(9.99264 0.0534124 0)
(9.92385 0.0593796 0)
(9.84787 0.065751 0)
(9.76432 0.0726056 0)
(9.67278 0.0800322 0)
(9.57272 0.0881193 0)
(9.46359 0.0969927 0)
(9.34474 0.10682 0)
(9.21522 0.117754 0)
(9.07408 0.12998 0)
(8.9201 0.143682 0)
(8.75209 0.159162 0)
(8.56819 0.176623 0)
(8.36716 0.196594 0)
(8.14572 0.219087 0)
(7.90342 0.24524 0)
(7.63334 0.273976 0)
(7.33917 0.30845 0)
(7.00309 0.34298 0)
(6.64494 0.388164 0)
(10.4452 -0.00101454 0)
(10.4343 0.00688063 0)
(10.422 0.0127696 0)
(10.4032 0.0183285 0)
(10.379 0.0235979 0)
(10.3488 0.0287457 0)
(10.3127 0.0339109 0)
(10.2707 0.0391749 0)
(10.2224 0.0446066 0)
(10.1679 0.0502674 0)
(10.1069 0.0562193 0)
(10.0391 0.0625271 0)
(9.96417 0.0692622 0)
(9.88182 0.0765068 0)
(9.79161 0.0843536 0)
(9.69303 0.0928955 0)
(9.58551 0.102263 0)
(9.4684 0.112632 0)
(9.34082 0.124164 0)
(9.20186 0.137054 0)
(9.05033 0.151495 0)
(8.8851 0.167803 0)
(8.70437 0.186191 0)
(8.50695 0.207215 0)
(8.2897 0.230896 0)
(8.0522 0.258418 0)
(7.7878 0.288706 0)
(7.50011 0.325007 0)
(7.172 0.361604 0)
(6.82261 0.409298 0)
(10.5521 -0.000663673 0)
(10.5414 0.00732625 0)
(10.5291 0.0134073 0)
(10.5106 0.019204 0)
(10.4866 0.0247234 0)
(10.4567 0.0301311 0)
(10.4211 0.0355655 0)
(10.3795 0.0411096 0)
(10.3319 0.0468344 0)
(10.2781 0.0528036 0)
(10.2179 0.0590817 0)
(10.151 0.0657361 0)
(10.0771 0.0728413 0)
(9.99594 0.0804827 0)
(9.90701 0.0887571 0)
(9.80986 0.0977619 0)
(9.70391 0.107632 0)
(9.58849 0.118553 0)
(9.4628 0.130693 0)
(9.32595 0.144256 0)
(9.17682 0.159443 0)
(9.0143 0.176586 0)
(8.83668 0.19591 0)
(8.64281 0.217993 0)
(8.42967 0.242869 0)
(8.1969 0.271765 0)
(7.93812 0.303607 0)
(7.65686 0.341731 0)
(7.33667 0.380393 0)
(6.99603 0.430576 0)
(10.6563 -0.00030805 0)
(10.6458 0.00778255 0)
(10.6336 0.014062 0)
(10.6152 0.0201009 0)
(10.5914 0.0258752 0)
(10.5619 0.0315479 0)
(10.5266 0.0372566 0)
(10.4855 0.0430859 0)
(10.4385 0.0491091 0)
(10.3853 0.0553922 0)
(10.3259 0.0620022 0)
(10.2599 0.0690093 0)
(10.187 0.0764911 0)
(10.1069 0.0845362 0)
(10.0193 0.0932455 0)
(9.92349 0.102721 0)
(9.81906 0.113105 0)
(9.70529 0.124587 0)
(9.58142 0.137343 0)
(9.44664 0.151587 0)
(9.29983 0.167529 0)
(9.13997 0.185516 0)
(8.96538 0.205783 0)
(8.77498 0.228933 0)
(8.56588 0.255009 0)
(8.33776 0.28528 0)
(8.08451 0.318677 0)
(7.8096 0.358616 0)
(7.49725 0.399341 0)
(7.16529 0.451984 0)
(10.7579 5.13061e-05 0)
(10.7476 0.00824967 0)
(10.7355 0.0147342 0)
(10.7172 0.02102 0)
(10.6936 0.0270545 0)
(10.6644 0.0329974 0)
(10.6295 0.0389858 0)
(10.5889 0.0451056 0)
(10.5424 0.0514327 0)
(10.4899 0.0580355 0)
(10.4312 0.0649833 0)
(10.366 0.0723494 0)
(10.2941 0.0802143 0)
(10.2151 0.0886703 0)
(10.1286 0.097822 0)
(10.0342 0.107777 0)
(9.93122 0.118683 0)
(9.81904 0.130737 0)
(9.69695 0.144118 0)
(9.56417 0.159051 0)
(9.41963 0.175758 0)
(9.26235 0.194596 0)
(9.09071 0.215814 0)
(8.9037 0.240036 0)
(8.69855 0.267317 0)
(8.47499 0.298965 0)
(8.22716 0.333917 0)
(7.9585 0.375661 0)
(7.65386 0.418442 0)
(7.33049 0.473513 0)
(10.8572 0.000414432 0)
(10.8472 0.00872787 0)
(10.835 0.0154246 0)
(10.8169 0.0219623 0)
(10.7936 0.0282622 0)
(10.7646 0.034481 0)
(10.7301 0.0407547 0)
(10.6899 0.0471708 0)
(10.6439 0.0538076 0)
(10.592 0.0607359 0)
(10.534 0.0680277 0)
(10.4697 0.0757592 0)
(10.3987 0.0840141 0)
(10.3207 0.0928882 0)
(10.2354 0.10249 0)
(10.1422 0.112933 0)
(10.0406 0.124371 0)
(9.92998 0.137006 0)
(9.80961 0.151022 0)
(9.67876 0.166654 0)
(9.53643 0.184132 0)
(9.38166 0.20383 0)
(9.2129 0.226006 0)
(9.0292 0.251306 0)
(8.8279 0.279796 0)
(8.60879 0.312821 0)
(8.36627 0.349327 0)
(8.10372 0.392865 0)
(7.80666 0.437691 0)
(7.49175 0.495155 0)
(10.9544 0.000780976 0)
(10.9446 0.0092174 0)
(10.9325 0.0161336 0)
(10.9145 0.0229284 0)
(10.8914 0.0294996 0)
(10.8627 0.0360001 0)
(10.8285 0.0425649 0)
(10.7887 0.0492833 0)
(10.7432 0.0562358 0)
(10.6919 0.0634958 0)
(10.6346 0.0711381 0)
(10.571 0.0792417 0)
(10.5009 0.0878936 0)
(10.4239 0.0971932 0)
(10.3396 0.107253 0)
(10.2477 0.118192 0)
(10.1475 0.130174 0)
(10.0383 0.1434 0)
(9.9196 0.158059 0)
(9.79064 0.174398 0)
(9.65045 0.192658 0)
(9.49811 0.213222 0)
(9.33216 0.236364 0)
(9.15168 0.262747 0)
(8.95413 0.292451 0)
(8.73937 0.326853 0)
(8.50203 0.364908 0)
(8.24546 0.410227 0)
(7.9558 0.457088 0)
(7.64918 0.516903 0)
(11.0497 0.00114918 0)
(11.0401 0.00971838 0)
(11.028 0.0168621 0)
(11.0102 0.0239194 0)
(10.9872 0.0307678 0)
(10.9588 0.037556 0)
(10.9249 0.0444182 0)
(10.8855 0.0514451 0)
(10.8405 0.0587196 0)
(10.7898 0.0663178 0)
(10.7331 0.0743172 0)
(10.6702 0.0827998 0)
(10.6009 0.0918561 0)
(10.5248 0.101589 0)
(10.4417 0.112115 0)
(10.3509 0.12356 0)
(10.2519 0.136095 0)
(10.1442 0.149922 0)
(10.0271 0.165234 0)
(9.89999 0.182289 0)
(9.76188 0.201338 0)
(9.61191 0.222778 0)
(9.44868 0.246893 0)
(9.27133 0.274364 0)
(9.07744 0.305285 0)
(8.86691 0.341062 0)
(8.63462 0.380665 0)
(8.38387 0.42775 0)
(8.10145 0.476631 0)
(7.80291 0.538755 0)
(11.1432 0.00151908 0)
(11.1337 0.0102312 0)
(11.1217 0.0176107 0)
(11.104 0.0249363 0)
(11.0812 0.0320679 0)
(11.0531 0.0391502 0)
(11.0195 0.0463162 0)
(10.9805 0.0536581 0)
(10.9359 0.0612613 0)
(10.8857 0.0692044 0)
(10.8296 0.0775678 0)
(10.7674 0.0864367 0)
(10.6989 0.0959048 0)
(10.6238 0.106079 0)
(10.5416 0.117079 0)
(10.452 0.129041 0)
(10.3542 0.14214 0)
(10.2479 0.156576 0)
(10.1324 0.17255 0)
(10.007 0.19033 0)
(9.8709 0.210177 0)
(9.72324 0.232502 0)
(9.56265 0.257596 0)
(9.38835 0.286162 0)
(9.19801 0.318303 0)
(8.99159 0.355454 0)
(8.76422 0.3966 0)
(8.51914 0.445435 0)
(8.24375 0.496322 0)
(7.95309 0.560707 0)
(11.235 0.00189204 0)
(11.2258 0.0107565 0)
(11.2138 0.01838 0)
(11.1962 0.0259799 0)
(11.1736 0.0334012 0)
(11.1457 0.0407842 0)
(11.1124 0.0482606 0)
(11.0738 0.0559243 0)
(11.0296 0.063863 0)
(10.9799 0.0721581 0)
(10.9244 0.0808928 0)
(10.8629 0.0901555 0)
(10.7952 0.100043 0)
(10.7209 0.110667 0)
(10.6396 0.122151 0)
(10.5511 0.134641 0)
(10.4545 0.148312 0)
(10.3495 0.163367 0)
(10.2355 0.180012 0)
(10.1118 0.198527 0)
(9.97769 0.219182 0)
(9.83227 0.242398 0)
(9.67425 0.26848 0)
(9.5029 0.298145 0)
(9.31602 0.33151 0)
(9.1136 0.370033 0)
(8.89101 0.412718 0)
(8.65143 0.463286 0)
(8.38289 0.516161 0)
(8.09987 0.582761 0)
(11.3253 0.00226894 0)
(11.3163 0.0112948 0)
(11.3043 0.019171 0)
(11.2869 0.0270513 0)
(11.2644 0.034769 0)
(11.2367 0.0424593 0)
(11.2038 0.0502532 0)
(11.1655 0.0582457 0)
(11.1217 0.0665271 0)
(11.0725 0.0751815 0)
(11.0175 0.084295 0)
(10.9567 0.0939593 0)
(10.8897 0.104275 0)
(10.8162 0.115357 0)
(10.7359 0.127334 0)
(10.6483 0.140363 0)
(10.5529 0.154619 0)
(10.4491 0.1703 0)
(10.3366 0.187626 0)
(10.2146 0.206884 0)
(10.0824 0.228356 0)
(9.93916 0.252473 0)
(9.78364 0.279549 0)
(9.61517 0.310319 0)
(9.43165 0.344911 0)
(9.23311 0.384804 0)
(9.01516 0.429023 0)
(8.78092 0.481306 0)
(8.51902 0.536153 0)
(8.2434 0.604919 0)
(11.4143 0.00265058 0)
(11.4054 0.0118468 0)
(11.3935 0.0199842 0)
(11.3761 0.0281516 0)
(11.3539 0.0361725 0)
(11.3264 0.0441772 0)
(11.2937 0.0522956 0)
(11.2557 0.0606243 0)
(11.2124 0.0692559 0)
(11.1636 0.0782773 0)
(11.1092 0.0877776 0)
(11.049 0.0978517 0)
(10.9826 0.108604 0)
(10.91 0.120153 0)
(10.8305 0.132634 0)
(10.7439 0.146214 0)
(10.6495 0.161063 0)
(10.547 0.177379 0)
(10.4359 0.195395 0)
(10.3156 0.215407 0)
(10.1852 0.237704 0)
(10.0441 0.26273 0)
(9.89099 0.29081 0)
(9.72531 0.322689 0)
(9.54505 0.358511 0)
(9.35028 0.399773 0)
(9.13683 0.44552 0)
(8.90778 0.4995 0)
(8.65232 0.556302 0)
(8.38386 0.627183 0)
(11.502 0.00303575 0)
(11.4933 0.0124128 0)
(11.4814 0.0208207 0)
(11.4641 0.0292819 0)
(11.442 0.037613 0)
(11.4147 0.0459394 0)
(11.3823 0.0543898 0)
(11.3446 0.0630622 0)
(11.3017 0.0720518 0)
(11.2534 0.0814481 0)
(11.1995 0.0913434 0)
(11.1398 0.101836 0)
(11.0742 0.113034 0)
(11.0022 0.12506 0)
(10.9236 0.138057 0)
(10.8379 0.152197 0)
(10.7445 0.167648 0)
(10.6433 0.184609 0)
(10.5336 0.203324 0)
(10.4148 0.2241 0)
(10.2862 0.247233 0)
(10.1471 0.273177 0)
(9.99643 0.302266 0)
(9.83347 0.335261 0)
(9.65638 0.372316 0)
(9.46527 0.414944 0)
(9.25621 0.462214 0)
(9.03217 0.517874 0)
(8.78294 0.576612 0)
(8.52141 0.649558 0)
(11.5884 0.00342178 0)
(11.5799 0.0129931 0)
(11.568 0.0216815 0)
(11.5509 0.0304435 0)
(11.5289 0.039092 0)
(11.5018 0.0477474 0)
(11.4697 0.0565374 0)
(11.4323 0.0655615 0)
(11.3898 0.0749172 0)
(11.3419 0.0846967 0)
(11.2884 0.0949956 0)
(11.2294 0.105916 0)
(11.1643 0.117568 0)
(11.0931 0.130083 0)
(11.0153 0.143608 0)
(10.9304 0.158318 0)
(10.8381 0.174378 0)
(10.738 0.191994 0)
(10.6297 0.211419 0)
(10.5125 0.232969 0)
(10.3856 0.256947 0)
(10.2485 0.283817 0)
(10.1001 0.313925 0)
(9.9398 0.348041 0)
(9.7658 0.386333 0)
(9.57825 0.430323 0)
(9.37343 0.479112 0)
(9.15426 0.536432 0)
(8.91107 0.597088 0)
(8.65623 0.67205 0)
(11.6739 0.00380867 0)
(11.6655 0.0135884 0)
(11.6536 0.0225675 0)
(11.6366 0.0316376 0)
(11.6147 0.0406109 0)
(11.5879 0.049603 0)
(11.5559 0.0587405 0)
(11.5189 0.0681243 0)
(11.4767 0.0778545 0)
(11.4292 0.088026 0)
(11.3762 0.0987375 0)
(11.3177 0.110094 0)
(11.2533 0.122213 0)
(11.1827 0.135227 0)
(11.1056 0.149293 0)
(11.0215 0.164581 0)
(10.9303 0.181257 0)
(10.8314 0.199538 0)
(10.7244 0.219685 0)
(10.6086 0.242018 0)
(10.4835 0.266851 0)
(10.3484 0.294658 0)
(10.2022 0.325791 0)
(10.0444 0.361033 0)
(9.87345 0.400565 0)
(9.68935 0.445916 0)
(9.48866 0.496219 0)
(9.27421 0.555182 0)
(9.03686 0.617736 0)
(8.78847 0.694665 0)
(11.7583 0.00419916 0)
(11.7501 0.0141999 0)
(11.7382 0.0234798 0)
(11.7213 0.0328654 0)
(11.6995 0.0421712 0)
(11.6728 0.0515077 0)
(11.6411 0.061001 0)
(11.6044 0.070753 0)
(11.5625 0.0808664 0)
(11.5154 0.0914389 0)
(11.463 0.102573 0)
(11.4049 0.114376 0)
(11.3411 0.126971 0)
(11.2711 0.140498 0)
(11.1947 0.155115 0)
(11.1115 0.170989 0)
(11.0212 0.18829 0)
(10.9235 0.207247 0)
(10.8177 0.228125 0)
(10.7035 0.251252 0)
(10.58 0.276951 0)
(10.4468 0.305703 0)
(10.3028 0.337871 0)
(10.1475 0.374244 0)
(9.97947 0.41502 0)
(9.79874 0.46173 0)
(9.60206 0.51354 0)
(9.39217 0.574127 0)
(9.16049 0.638563 0)
(8.91832 0.717409 0)
(11.8418 0.00459522 0)
(11.8337 0.0148289 0)
(11.8219 0.0244195 0)
(11.805 0.0341284 0)
(11.7834 0.0437743 0)
(11.7569 0.0534635 0)
(11.7254 0.0633208 0)
(11.6889 0.0734499 0)
(11.6474 0.0839555 0)
(11.6007 0.0949385 0)
(11.5486 0.106504 0)
(11.4911 0.118766 0)
(11.4278 0.13185 0)
(11.3584 0.145902 0)
(11.2827 0.161078 0)
(11.2003 0.177545 0)
(11.111 0.195481 0)
(11.0144 0.215124 0)
(10.9099 0.236744 0)
(10.7971 0.260678 0)
(10.6752 0.287253 0)
(10.5439 0.316959 0)
(10.402 0.350169 0)
(10.2492 0.38768 0)
(10.084 0.429704 0)
(9.90654 0.477769 0)
(9.71376 0.531083 0)
(9.5083 0.593275 0)
(9.28211 0.659573 0)
(9.04594 0.74029 0)
(11.9245 0.00499658 0)
(11.9166 0.0154765 0)
(11.9047 0.0253878 0)
(11.8879 0.0354277 0)
(11.8664 0.0454219 0)
(11.8401 0.055472 0)
(11.8088 0.0657021 0)
(11.7726 0.0762173 0)
(11.7314 0.0871247 0)
(11.685 0.0985281 0)
(11.6334 0.110537 0)
(11.5763 0.123268 0)
(11.5135 0.136854 0)
(11.4447 0.15144 0)
(11.3696 0.167184 0)
(11.2881 0.184252 0)
(11.1998 0.202835 0)
(11.1043 0.223175 0)
(11.001 0.245549 0)
(10.8896 0.270299 0)
(10.7693 0.297761 0)
(10.6398 0.328431 0)
(10.5 0.362692 0)
(10.3496 0.401346 0)
(10.1872 0.444621 0)
(10.0129 0.49404 0)
(9.82391 0.548851 0)
(9.62276 0.612632 0)
(9.40187 0.680774 0)
(9.17151 0.763315 0)
(12.0065 0.00540358 0)
(11.9986 0.016144 0)
(11.9867 0.0263857 0)
(11.97 0.0367647 0)
(11.9486 0.0471154 0)
(11.9224 0.057535 0)
(11.8914 0.068147 0)
(11.8554 0.0790578 0)
(11.8145 0.0903768 0)
(11.7685 0.102211 0)
(11.7173 0.114674 0)
(11.6606 0.127888 0)
(11.5983 0.141987 0)
(11.53 0.157117 0)
(11.4557 0.173434 0)
(11.375 0.191115 0)