/*--------------------------------*- C++ -*----------------------------------*\
| =========                 |                                                 |
| \\      /  F ield         | OpenFOAM: The Open Source CFD Toolbox           |
|  \\    /   O peration     | Version:  2506                                  |
|   \\  /    A nd           | Website:  www.openfoam.com                      |
|    \\/     M anipulation  |                                                 |
\*---------------------------------------------------------------------------*/
FoamFile
{
    version     2.0;
    format      ascii;
    arch        "LSB;label=32;scalar=64";
    class       volScalarField;
    location    "6000";
    object      yPlus;
}
// * * * * * * * * * * * * * * * * * * * * * * * * * * * * * * * * * * * * * //

dimensions      [0 0 0 0 0 0 0];

internalField   uniform 0;

boundaryField
{
    inlet
    {
        type            calculated;
        value           uniform 0;
    }
    outlet
    {
        type            calculated;
        value           uniform 0;
    }
    bottom
    {
        type            calculated;
        value           nonuniform List<scalar> 
309
(
0.806346
0.80833
0.806475
0.800824
0.795375
0.78932
0.782756
0.77568
0.768049
0.759828
0.750965
0.7414
0.731057
0.719854
0.707668
0.694353
0.679776
0.663815
0.646261
0.626871
0.605254
0.581178
0.553901
0.523415
0.487829
0.448575
0.39934
0.348876
0.269357
0.210309
0.145842
0.175281
0.0286074
0.199571
0.182039
0.350018
0.199093
0.477887
0.224644
0.487555
0.789436
0.828631
0.900803
0.94356
0.978019
1.00564
1.02779
1.04595
1.06078
1.0729
1.08287
1.09099
1.09758
1.10291
1.10719
1.11059
1.1132
1.11514
1.11648
1.11728
1.1176
1.11749
1.11698
1.11609
1.11485
1.11327
1.11135
1.10911
1.10654
1.10366
1.10048
1.09698
1.09318
1.08908
1.08468
1.07998
1.07497
1.06966
1.06404
1.05811
1.05187
1.04529
1.03839
1.03116
1.0236
1.01569
1.00743
0.998796
0.989785
0.980375
0.970552
0.960232
0.949359
0.937932
0.925949
0.913394
0.900228
0.886408
0.871881
0.856588
0.84046
0.823421
0.80538
0.786237
0.76587
0.744033
0.720557
0.695297
0.668094
0.638753
0.606902
0.572179
0.534239
0.492591
0.446643
0.395497
0.337736
0.270456
0.185874
0.0682513
0.183777
0.247654
0.290371
0.320352
0.341288
0.355404
0.36436
0.369404
0.371537
0.371671
0.370434
0.368215
0.365353
0.36208
0.358614
0.355111
0.351657
0.348326
0.345146
0.342152
0.33932
0.336547
0.33371
0.330674
0.327416
0.323989
0.320424
0.316747
0.312989
0.309183
0.30537
0.301586
0.297856
0.294185
0.290558
0.286956
0.28336
0.279766
0.276185
0.27265
0.269211
0.265933
0.262897
0.260197
0.257938
0.256235
0.255206
0.25497
0.255641
0.257318
0.260078
0.263972
0.269014
0.275187
0.282438
0.290679
0.299792
0.309631
0.320015
0.330728
0.341497
0.351978
0.361619
0.369595
0.375056
0.373819
0.362591
0.347859
0.190591
0.061662
0.283442
0.255134
0.313937
0.324476
0.350194
0.364451
0.380596
0.393185
0.40537
0.416057
0.426083
0.43527
0.443876
0.4519
0.459436
0.466504
0.473143
0.479365
0.485183
0.4906
0.49562
0.500247
0.50452
0.508488
0.512212
0.516622
0.521461
0.52405
0.549577
0.574857
0.579031
0.589952
0.597327
0.605182
0.611962
0.618507
0.624522
0.630232
0.635587
0.640664
0.64546
0.650005
0.654304
0.658369
0.662203
0.665809
0.669187
0.672334
0.675246
0.677919
0.680344
0.682514
0.684416
0.686039
0.687371
0.688396
0.689102
0.689474
0.689497
0.689156
0.688433
0.68731
0.68577
0.683791
0.681354
0.678438
0.675022
0.671082
0.666597
0.661544
0.655899
0.649637
0.642733
0.635159
0.626886
0.617881
0.608113
0.597547
0.586146
0.573873
0.560681
0.546521
0.531334
0.515051
0.497591
0.478858
0.458727
0.437052
0.413628
0.388205
0.360398
0.329705
0.295245
0.255685
0.208093
0.14527
0.0361827
0.153933
0.215093
0.261979
0.30204
0.336682
0.368616
0.39685
0.424203
0.447995
0.472559
0.492576
0.515782
0.531842
0.55548
0.566298
0.593397
0.59575
0.632195
0.61922
0.677288
0.636747
0.734697
)
;
    }
    top
    {
        type            calculated;
        value           uniform 0;
    }
    frontAndBack
    {
        type            empty;
    }
}


// ************************************************************************* //
