/*--------------------------------*- C++ -*----------------------------------*\
| =========                 |                                                 |
| \\      /  F ield         | OpenFOAM: The Open Source CFD Toolbox           |
|  \\    /   O peration     | Version:  2506                                  |
|   \\  /    A nd           | Website:  www.openfoam.com                      |
|    \\/     M anipulation  |                                                 |
\*---------------------------------------------------------------------------*/
FoamFile
{
    version     2.0;
    format      ascii;
    arch        "LSB;label=32;scalar=64";
    class       volScalarField;
    location    "0";
    object      omega;
}
// * * * * * * * * * * * * * * * * * * * * * * * * * * * * * * * * * * * * * //

dimensions      [0 0 -1 0 0 0 0];

internalField   uniform 17.764;

boundaryField
{
    inlet
    {
        type            fixedValue;
        value           nonuniform List<scalar> 
175
(
3.2619e+06
829114
228547
106575
64827
45648.6
34829.5
27819.3
22889.3
19238.3
16438
14237.3
12475.8
11044.6
9865.68
8881.67
8048.89
7336.87
6722.12
6186.92
5717.41
5302.71
4934.13
4604.85
4309.08
4042.19
3800.38
3580.39
3379.55
3195.58
3026.57
2870.85
2726.97
2593.73
2470.05
2354.98
2247.73
2147.58
2053.87
1966.05
1883.62
1806.14
1733.21
1664.46
1599.58
1538.28
1480.29
1425.38
1373.33
1323.94
1277.04
1232.47
1190.06
1149.69
1111.22
1074.55
1039.58
1006.17
974.274
943.786
914.633
886.74
860.04
834.471
809.977
786.5
763.991
742.4
721.687
701.807
682.722
664.397
646.797
629.888
613.645
598.033
583.034
568.612
554.756
541.433
528.628
516.321
504.496
493.131
482.211
471.724
461.653
451.988
442.713
433.802
425.232
416.968
408.993
401.287
393.832
386.609
379.605
372.804
366.193
359.756
353.479
347.346
341.336
335.436
329.62
323.863
318.135
312.396
306.603
300.694
294.598
288.225
281.475
274.28
266.881
259.465
251.922
244.157
236.123
227.845
219.369
210.657
201.542
191.838
181.438
170.282
158.371
145.801
132.783
119.643
106.783
94.6162
83.4767
73.5682
64.9507
57.5576
51.2152
45.6562
40.5606
35.7999
31.7652
28.6379
26.1951
24.2487
22.6719
21.3769
20.3016
19.4008
18.6405
17.995
17.4446
16.9737
16.5697
16.2228
15.9245
15.6682
15.4481
15.2594
15.098
14.9603
14.8432
14.7441
14.6607
14.5908
14.5325
14.4843
14.4448
14.4126
14.3868
14.3662
14.3502
14.338
14.3292
14.3235
14.3206
)
;
    }
    outlet
    {
        type            zeroGradient;
    }
    bottom
    {
        type            omegaWallFunction;
        blending        binomial;
        n               2;
        value           uniform 17.764;
    }
    top
    {
        type            zeroGradient;
    }
    frontAndBack
    {
        type            empty;
    }
    procBoundary2to3
    {
        type            processor;
        value           uniform 17.764;
    }
}


// ************************************************************************* //
