/*--------------------------------*- C++ -*----------------------------------*\
| =========                 |                                                 |
| \\      /  F ield         | OpenFOAM: The Open Source CFD Toolbox           |
|  \\    /   O peration     | Version:  2506                                  |
|   \\  /    A nd           | Website:  www.openfoam.com                      |
|    \\/     M anipulation  |                                                 |
\*---------------------------------------------------------------------------*/
FoamFile
{
    version     2.0;
    format      ascii;
    arch        "LSB;label=32;scalar=64";
    class       volScalarField;
    location    "1000";
    object      k;
}
// * * * * * * * * * * * * * * * * * * * * * * * * * * * * * * * * * * * * * //

dimensions      [0 2 -2 0 0 0 0];

internalField   nonuniform List<scalar> 
72100
(
0.00919237
0.0088583
0.00885743
0.00891742
0.00874113
0.0084129
0.00836965
0.00837049
0.00816546
0.00778598
0.00773862
0.00773039
0.00748639
0.00705158
0.00700072
0.00698169
0.00669694
0.00620591
0.00615057
0.00611602
0.00578743
0.00523979
0.00517842
0.00512376
0.00475827
0.00416627
0.00409929
0.00402325
0.0036304
0.00301601
0.00294669
0.00285496
0.00246399
0.00188504
0.00182416
0.0017362
0.00141884
0.000963528
0.000931562
0.000890307
0.0270721
0.0233742
0.0233537
0.0253479
0.0249388
0.0222995
0.0223641
0.0242683
0.0237844
0.0211953
0.0213049
0.0230022
0.0224118
0.0198733
0.0200033
0.0214522
0.0207548
0.0182823
0.0184094
0.0195672
0.0187514
0.0163559
0.0164584
0.017283
0.0163614
0.0140798
0.0141415
0.0145945
0.0135571
0.0114218
0.0114328
0.0114931
0.010367
0.00845122
0.00841455
0.0081223
0.00699556
0.00542664
0.0053611
0.00484673
0.0273045
0.0233949
0.0233751
0.0255808
0.0251499
0.0223206
0.0223867
0.0245247
0.0239933
0.0212168
0.0213287
0.0232786
0.0226195
0.019895
0.020028
0.0217421
0.0209612
0.0183042
0.0184346
0.019861
0.0189548
0.0163773
0.0164832
0.017568
0.0165588
0.0141003
0.014165
0.014856
0.0137428
0.0114406
0.0114538
0.011715
0.0105323
0.00846709
0.00843169
0.00828996
0.0071281
0.00543839
0.00537319
0.00495104
0.0958039
0.087998
0.0877973
0.0911685
0.0900105
0.0844847
0.0845183
0.0880745
0.0867038
0.0811382
0.0812432
0.0844318
0.0827055
0.077025
0.0771493
0.0798385
0.0777179
0.0719066
0.0720017
0.0740514
0.0714626
0.0654794
0.0654956
0.0667604
0.0637174
0.0576069
0.0575052
0.0578185
0.0542328
0.0480192
0.0477692
0.0469765
0.0428828
0.0367254
0.0363329
0.0344617
0.0300339
0.0244471
0.0239728
0.0212418
0.236133
0.228908
0.228321
0.228543
0.226294
0.221226
0.22096
0.221873
0.219413
0.213939
0.213672
0.214108
0.210999
0.204834
0.204502
0.204226
0.200272
0.193245
0.192789
0.191568
0.186475
0.178312
0.177663
0.175263
0.168925
0.159506
0.158605
0.154702
0.146728
0.135822
0.134602
0.12884
0.119084
0.106724
0.105186
0.0975193
0.0861019
0.073346
0.0716234
0.0622318
0.425571
0.422845
0.421954
0.416275
0.413059
0.411414
0.410789
0.406216
0.403003
0.400721
0.399964
0.394735
0.390673
0.387192
0.386227
0.379957
0.374626
0.369562
0.368327
0.360663
0.353455
0.346192
0.3446
0.335208
0.325782
0.315851
0.31381
0.302175
0.289601
0.276169
0.273538
0.259035
0.242639
0.224984
0.221677
0.204067
0.183261
0.162227
0.158334
0.137273
0.427631
0.423035
0.422149
0.418423
0.415018
0.411612
0.411001
0.408625
0.404985
0.400928
0.400193
0.397399
0.3927
0.387408
0.386472
0.382845
0.376713
0.369787
0.368587
0.363716
0.35561
0.346425
0.344869
0.338338
0.328003
0.316089
0.314083
0.305261
0.291861
0.276406
0.273803
0.261912
0.244868
0.225209
0.221919
0.206526
0.185304
0.162419
0.158531
0.13906
0.618124
0.615859
0.614906
0.608301
0.604335
0.602594
0.601862
0.596783
0.592953
0.590687
0.589791
0.584111
0.57917
0.57554
0.574369
0.567471
0.560848
0.555312
0.553783
0.545097
0.535987
0.527692
0.525684
0.514628
0.502542
0.490729
0.488098
0.473734
0.457278
0.440562
0.437062
0.418139
0.396001
0.372699
0.368063
0.34353
0.313783
0.283693
0.27768
0.245468
0.774785
0.773153
0.772273
0.765298
0.761172
0.759679
0.758975
0.753593
0.750067
0.748352
0.747527
0.741518
0.73698
0.733988
0.732883
0.725441
0.719182
0.714297
0.712807
0.703262
0.69439
0.686705
0.68469
0.672346
0.660166
0.648724
0.646001
0.629641
0.612389
0.595481
0.591735
0.569631
0.54536
0.520526
0.515337
0.485566
0.450772
0.416413
0.409123
0.36718
0.893289
0.892127
0.891349
0.884752
0.88067
0.879204
0.878568
0.873567
0.870555
0.869223
0.868521
0.863039
0.859204
0.856737
0.855777
0.848862
0.843394
0.839117
0.837788
0.828742
0.820756
0.81382
0.811983
0.800006
0.788669
0.778041
0.775477
0.759241
0.74268
0.726519
0.722881
0.700368
0.676234
0.651633
0.646404
0.615025
0.578637
0.542836
0.535036
0.487979
0.894498
0.892241
0.891466
0.88604
0.881853
0.879325
0.878698
0.87504
0.871779
0.869353
0.868665
0.864717
0.860499
0.856877
0.855937
0.850754
0.844786
0.839271
0.837965
0.830847
0.822279
0.81399
0.812179
0.802317
0.79036
0.77823
0.775693
0.76174
0.744588
0.726731
0.723117
0.703022
0.678413
0.651869
0.646659
0.617767
0.581121
0.543095
0.535302
0.490651
0.982706
0.981137
0.980481
0.975405
0.971389
0.969097
0.968537
0.965118
0.962444
0.960624
0.96007
0.956555
0.953199
0.950406
0.949635
0.944953
0.940037
0.935531
0.934419
0.927867
0.920563
0.913493
0.911897
0.902646
0.89205
0.881308
0.879017
0.86572
0.850056
0.833804
0.830449
0.810967
0.78779
0.76285
0.757864
0.729166
0.693192
0.655909
0.648085
0.601667
1.049
1.04808
1.04754
1.04295
1.03916
1.03705
1.03654
1.0334
1.03124
1.02994
1.02952
1.02653
1.02401
1.02202
1.02143
1.01743
1.0136
1.01015
1.00925
1.00351
0.997534
0.991752
0.990397
0.982057
0.972967
0.963772
0.961752
0.949509
0.935609
0.92122
0.918191
0.899954
0.878772
0.856029
0.851397
0.823936
0.789855
0.754518
0.74695
0.700867
1.09963
1.09927
1.09885
1.09479
1.09128
1.08933
1.08887
1.08596
1.08419
1.08332
1.083
1.08051
1.07873
1.07748
1.07704
1.07376
1.07097
1.06853
1.06784
1.06303
1.05838
1.0539
1.05279
1.04554
1.03801
1.03041
1.02868
1.0177
1.00566
0.993244
0.99056
0.973868
0.954918
0.934643
0.930428
0.904764
0.873228
0.840526
0.833383
0.788929
1.10027
1.09933
1.09891
1.09548
1.09192
1.0894
1.08894
1.08675
1.08486
1.08339
1.08308
1.08142
1.07944
1.07756
1.07713
1.07482
1.07176
1.06862
1.06794
1.06425
1.05928
1.054
1.05291
1.04694
1.03906
1.03053
1.02882
1.0193
1.00691
0.993387
0.990719
0.975679
0.956448
0.934816
0.930614
0.906804
0.875151
0.840737
0.8336
0.791203
1.13961
1.13925
1.13893
1.13596
1.13274
1.13047
1.13005
1.12791
1.12631
1.12525
1.12501
1.12364
1.12229
1.12113
1.12084
1.11905
1.11696
1.11486
1.11437
1.11144
1.10777
1.10386
1.10301
1.098
1.09172
1.08489
1.08347
1.07516
1.06471
1.05331
1.05099
1.03748
1.02061
1.00168
0.997929
0.976061
0.947301
0.916068
0.909459
0.869352
1.17094
1.17104
1.17082
1.16831
1.16547
1.16344
1.16305
1.16094
1.15953
1.15877
1.15859
1.1574
1.15655
1.15597
1.15578
1.15446
1.15319
1.15199
1.15166
1.14945
1.14696
1.14431
1.14368
1.13964
1.13485
1.12965
1.12851
1.12145
1.1129
1.10359
1.10163
1.08973
1.07525
1.05904
1.05575
1.03599
1.01029
0.982481
0.97646
0.939103
1.19637
1.19686
1.19672
1.19463
1.19217
1.19038
1.19002
1.18794
1.18667
1.18613
1.18597
1.18491
1.18442
1.1843
1.18419
1.18324
1.18264
1.1822
1.18201
1.18045
1.17899
1.17745
1.17702
1.17391
1.1705
1.16678
1.1659
1.16009
1.15335
1.14603
1.14442
1.13418
1.12206
1.10853
1.10569
1.08815
1.06561
1.04135
1.03595
1.00166
1.21734
1.21814
1.21806
1.21634
1.21424
1.21269
1.21236
1.21033
1.20917
1.20878
1.20865
1.20767
1.20744
1.20767
1.20763
1.20696
1.2069
1.20709
1.20701
1.206
1.20542
1.20485
1.2046
1.20234
1.20016
1.19778
1.19714
1.19252
1.18746
1.182
1.18073
1.17214
1.16229
1.15135
1.14897
1.13369
1.11433
1.09366
1.08891
1.05793
1.2177
1.21817
1.21809
1.21673
1.2146
1.21273
1.2124
1.21078
1.20954
1.20882
1.2087
1.20818
1.20784
1.20772
1.20768
1.20755
1.20734
1.20714
1.20707
1.20669
1.20593
1.20491
1.20467
1.20316
1.20078
1.19785
1.19723
1.1935
1.18825
1.18209
1.18083
1.17333
1.16333
1.15147
1.14911
1.13517
1.11577
1.09383
1.08909
1.05979
1.23513
1.23589
1.23586
1.23478
1.23298
1.23138
1.23108
1.22948
1.22834
1.22778
1.22768
1.22716
1.22703
1.22722
1.22723
1.22726
1.22749
1.22784
1.22786
1.22787
1.22787
1.22772
1.22763
1.22679
1.22552
1.22385
1.22344
1.22071
1.21703
1.21265
1.2117
1.20568
1.19786
1.18855
1.18663
1.17482
1.15856
1.14027
1.13619
1.11026
1.24978
1.25077
1.25079
1.24994
1.24845
1.24711
1.24684
1.24527
1.24423
1.2438
1.24371
1.24317
1.2432
1.24363
1.24367
1.24382
1.24441
1.2452
1.2453
1.24562
1.24624
1.24684
1.24687
1.24662
1.24631
1.24574
1.24552
1.24371
1.24143
1.23867
1.238
1.23337
1.22758
1.22066
1.21915
1.20943
1.1962
1.18142
1.178
1.1555
1.26219
1.26335
1.2634
1.26277
1.26156
1.26046
1.26022
1.25871
1.25776
1.25743
1.25734
1.25678
1.25692
1.25753
1.2576
1.25784
1.2587
1.25985
1.26001
1.2606
1.26172
1.26293
1.26307
1.26333
1.26384
1.2642
1.26416
1.26318
1.26215
1.26082
1.26041
1.25708
1.25316
1.24843
1.24731
1.23959
1.22923
1.2178
1.21501
1.1959
1.26245
1.26337
1.26343
1.26305
1.26183
1.26049
1.26025
1.25904
1.25804
1.25746
1.25737
1.25716
1.25722
1.25756
1.25764
1.25826
1.25902
1.25989
1.26005
1.26109
1.26209
1.26298
1.26312
1.26391
1.26428
1.26426
1.26422
1.26389
1.26273
1.26089
1.26048
1.25798
1.25395
1.24852
1.24742
1.24076
1.23041
1.21794
1.21515
1.19749
1.27298
1.27407
1.27415
1.27393
1.27297
1.27187
1.27166
1.2705
1.26959
1.26911
1.26904
1.26877
1.26891
1.2694
1.2695
1.27013
1.27111
1.27229
1.2725
1.2737
1.27514
1.27657
1.2768
1.27796
1.27904
1.27986
1.27996
1.2803
1.28024
1.27972
1.27955
1.27816
1.27583
1.27247
1.27172
1.26686
1.2592
1.24997
1.24778
1.23331
1.28198
1.28319
1.2833
1.28321
1.28248
1.28162
1.28144
1.28033
1.27951
1.27914
1.27907
1.27874
1.27893
1.27954
1.27965
1.28027
1.28141
1.28283
1.28308
1.28441
1.2862
1.28807
1.28838
1.28985
1.29151
1.29304
1.29327
1.29419
1.29509
1.29572
1.29575
1.29536
1.29457
1.29306
1.29265
1.28945
1.28429
1.27806
1.27644
1.26501
1.28969
1.291
1.29113
1.29114
1.29063
1.28999
1.28983
1.28879
1.28806
1.28777
1.28771
1.28734
1.28757
1.28825
1.28837
1.28896
1.29022
1.29181
1.29209
1.29351
1.29558
1.29781
1.29818
1.29991
1.30206
1.30418
1.30451
1.30593
1.30765
1.30926
1.30947
1.30999
1.31055
1.31069
1.31058
1.30894
1.30607
1.30257
1.30149
1.29293
1.28989
1.29102
1.29115
1.29135
1.29083
1.29001
1.28985
1.28904
1.28827
1.2878
1.28774
1.28763
1.28779
1.28828
1.28839
1.28928
1.29045
1.29184
1.29212
1.29387
1.29585
1.29784
1.29821
1.30033
1.30238
1.30422
1.30455
1.30644
1.30807
1.30932
1.30953
1.31065
1.31115
1.31077
1.31066
1.30983
1.30699
1.30269
1.30161
1.29423
1.29648
1.29769
1.29784
1.29812
1.29779
1.29718
1.29705
1.2963
1.29563
1.29525
1.2952
1.29503
1.29522
1.29578
1.2959
1.29672
1.29797
1.29951
1.29981
1.30158
1.30378
1.30608
1.3065
1.30879
1.31124
1.3136
1.31402
1.31628
1.31861
1.32074
1.3211
1.32296
1.32466
1.32579
1.32595
1.32646
1.32569
1.32396
1.32336
1.31856
1.30213
1.3034
1.30356
1.30391
1.30374
1.30333
1.30322
1.30254
1.30197
1.30168
1.30163
1.30142
1.30164
1.30224
1.30236
1.30312
1.30442
1.30606
1.30637
1.30814
1.31051
1.31305
1.31351
1.31593
1.31871
1.32148
1.32197
1.32454
1.32746
1.33033
1.33082
1.33332
1.33606
1.3385
1.3389
1.34062
1.34171
1.34231
1.34215
1.33972
1.30695
1.30827
1.30843
1.30885
1.30882
1.30858
1.3085
1.30789
1.30742
1.30722
1.30718
1.30694
1.30717
1.30782
1.30794
1.30863
1.30995
1.31165
1.31197
1.31373
1.31621
1.31893
1.31942
1.32195
1.32498
1.32808
1.32863
1.33146
1.33485
1.33833
1.33894
1.342
1.34562
1.3492
1.3498
1.35261
1.35535
1.358
1.35824
1.358
1.3071
1.30828
1.30845
1.309
1.30897
1.3086
1.30852
1.30808
1.30758
1.30724
1.3072
1.30716
1.30734
1.30784
1.30796
1.30887
1.31013
1.31167
1.31199
1.314
1.3164
1.31896
1.31945
1.32225
1.32521
1.32811
1.32866
1.33181
1.33515
1.33837
1.33898
1.34246
1.34604
1.34925
1.34986
1.35325
1.35603
1.35809
1.35833
1.35899
1.31119
1.31241
1.31258
1.31317
1.31327
1.31306
1.31301
1.31263
1.31224
1.31199
1.31196
1.31188
1.31209
1.31262
1.31274
1.31357
1.31484
1.31644
1.31676
1.31871
1.3212
1.3239
1.32441
1.32726
1.33042
1.33359
1.33418
1.33751
1.34124
1.34499
1.34569
1.3496
1.35394
1.35815
1.35893
1.36323
1.36746
1.37139
1.37199
1.37454
1.31463
1.31588
1.31606
1.31667
1.31688
1.31683
1.3168
1.31649
1.31619
1.31605
1.31602
1.31593
1.31616
1.31672
1.31684
1.3176
1.31887
1.32049
1.32081
1.3227
1.32523
1.32803
1.32855
1.33143
1.33474
1.33812
1.33874
1.34221
1.34625
1.35042
1.3512
1.35546
1.36043
1.36548
1.36642
1.3715
1.37699
1.38256
1.38347
1.38771
1.31751
1.31877
1.31895
1.31958
1.3199
1.31998
1.31996
1.31973
1.31952
1.31947
1.31945
1.31936
1.31961
1.3202
1.32031
1.32102
1.32228
1.32392
1.32423
1.32606
1.3286
1.33146
1.33199
1.33487
1.33828
1.34181
1.34247
1.34604
1.35032
1.35482
1.35565
1.36022
1.36571
1.37145
1.37252
1.37829
1.38486
1.39182
1.393
1.39876
1.31762
1.31878
1.31896
1.31969
1.32
1.31999
1.31997
1.31986
1.31964
1.31948
1.31947
1.31952
1.31974
1.32022
1.32033
1.32119
1.32241
1.32393
1.32425
1.32624
1.32874
1.33148
1.33201
1.33507
1.33844
1.34183
1.34249
1.34627
1.35051
1.35484
1.35568
1.36052
1.36598
1.37149
1.37256
1.37872
1.38532
1.39188
1.39307
1.39946
1.31996
1.32113
1.32131
1.32205
1.32245
1.32257
1.32257
1.32252
1.32239
1.32233
1.32233
1.32237
1.32263
1.32314
1.32326
1.32405
1.32526
1.32679
1.3271
1.32902
1.33151
1.33429
1.33482
1.33785
1.34128
1.3448
1.34548
1.3493
1.35373
1.35834
1.35922
1.36427
1.37016
1.37626
1.37744
1.38412
1.39164
1.39944
1.40086
1.40851
1.32184
1.32301
1.32319
1.32393
1.3244
1.32463
1.32466
1.32466
1.32463
1.32466
1.32467
1.32473
1.32502
1.32556
1.32568
1.32642
1.32762
1.32915
1.32945
1.3313
1.33377
1.33656
1.33709
1.34008
1.34354
1.34714
1.34782
1.35168
1.35624
1.36105
1.36197
1.36719
1.37342
1.37999
1.38126
1.3884
1.39667
1.4055
1.40712
1.41585
1.32328
1.32444
1.32462
1.32538
1.32591
1.32623
1.32626
1.32634
1.3264
1.32652
1.32653
1.32661
1.32694
1.32752
1.32764
1.32835
1.32953
1.33105
1.33135
1.33313
1.33558
1.33835
1.33887
1.34181
1.34528
1.34892
1.34961
1.35348
1.35814
1.3631
1.36404
1.3694
1.37589
1.38283
1.38416
1.39168
1.40058
1.41024
1.41203
1.42171
1.32334
1.32445
1.32463
1.32544
1.32597
1.32624
1.32627
1.32642
1.32647
1.32652
1.32654
1.32671
1.32702
1.32753
1.32765
1.32846
1.32962
1.33106
1.33136
1.33325
1.33566
1.33836
1.33888
1.34192
1.34537
1.34893
1.34962
1.35361
1.35823
1.36311
1.36406
1.36956
1.37603
1.38285
1.38418
1.39191
1.40084
1.41028
1.41207
1.42213
1.32437
1.32547
1.32565
1.32646
1.32704
1.3274
1.32745
1.32765
1.32779
1.32793
1.32795
1.32815
1.32851
1.32905
1.32917
1.32995
1.3311
1.33255
1.33284
1.33466
1.33703
1.33971
1.34023
1.34319
1.34663
1.35022
1.35091
1.35488
1.35957
1.36456
1.36553
1.37111
1.37778
1.38489
1.38628
1.39429
1.40371
1.41385
1.41578
1.42659
1.32503
1.32611
1.32629
1.3271
1.32773
1.32815
1.32822
1.32848
1.32869
1.32891
1.32895
1.32918
1.32959
1.33018
1.3303
1.33106
1.33221
1.33365
1.33394
1.3357
1.33803
1.34067
1.34117
1.34407
1.34748
1.35107
1.35176
1.35571
1.36044
1.3655
1.36648
1.37212
1.37894
1.38626
1.38769
1.39593
1.40574
1.41643
1.41847
1.4299
1.32533
1.32639
1.32657
1.32739
1.32806
1.32853
1.32861
1.32893
1.32922
1.32951
1.32956
1.32984
1.3303
1.33092
1.33104
1.33181
1.33296
1.33439
1.33467
1.33639
1.33868
1.34126
1.34175
1.34459
1.34796
1.35152
1.35221
1.35616
1.36089
1.36598
1.36697
1.37267
1.37958
1.38705
1.38852
1.39694
1.40705
1.41815
1.42028
1.43222
1.32534
1.32639
1.32657
1.32739
1.32807
1.32854
1.32861
1.32895
1.32924
1.32951
1.32956
1.32988
1.33033
1.33092
1.33105
1.33186
1.33299
1.33439
1.33468
1.33644
1.33871
1.34126
1.34176
1.34462
1.34798
1.35152
1.35221
1.35618
1.36091
1.36598
1.36697
1.3727
1.37962
1.38706
1.38852
1.39701
1.40714
1.41816
1.42029
1.4324
1.32529
1.32633
1.3265
1.32733
1.32803
1.32856
1.32864
1.32903
1.32939
1.32973
1.32979
1.33016
1.33066
1.3313
1.33143
1.33224
1.33338
1.33478
1.33507
1.33678
1.33901
1.34152
1.342
1.34479
1.3481
1.35163
1.35231
1.35625
1.36098
1.36607
1.36707
1.37281
1.37979
1.38734
1.38883
1.39743
1.40778
1.41912
1.42131
1.43379
1.32493
1.32594
1.32612
1.32695
1.32768
1.32824
1.32833
1.32878
1.3292
1.3296
1.32968
1.3301
1.33065
1.33133
1.33146
1.3323
1.33346
1.33485
1.33513
1.33682
1.33901
1.34145
1.34192
1.34466
1.34792
1.35141
1.35208
1.35601
1.36072
1.36581
1.36681
1.37257
1.37959
1.3872
1.3887
1.39739
1.40789
1.41944
1.42168
1.43445
1.32427
1.32524
1.32541
1.32627
1.32702
1.32759
1.32769
1.32821
1.32869
1.32913
1.32922
1.32972
1.33032
1.33102
1.33117
1.33205
1.33322
1.3346
1.33488
1.33657
1.33871
1.34109
1.34155
1.34425
1.34746
1.35089
1.35157
1.35548
1.36018
1.36524
1.36623
1.37203
1.37905
1.38667
1.38818
1.39696
1.40755
1.41921
1.42149
1.4345
1.32422
1.32524
1.32541
1.32621
1.32696
1.32759
1.32769
1.32815
1.32864
1.32913
1.32921
1.32967
1.33028
1.33102
1.33116
1.33201
1.33319
1.3346
1.33488
1.33653
1.33868
1.34108
1.34154
1.34419
1.34741
1.35089
1.35156
1.35541
1.36012
1.36523
1.36623
1.37195
1.37899
1.38666
1.38817
1.39689
1.40749
1.41921
1.42149
1.43447
1.32324
1.32423
1.3244
1.32521
1.32598
1.32663
1.32673
1.32726
1.3278
1.32833
1.32843
1.32895
1.32961
1.33039
1.33054
1.33143
1.33263
1.33404
1.33432
1.33596
1.33807
1.34042
1.34087
1.34348
1.34666
1.35009
1.35076
1.3546
1.35928
1.36437
1.36536
1.3711
1.37813
1.38581
1.38732
1.39607
1.40673
1.41851
1.42081
1.43394
1.32197
1.32292
1.32309
1.32393
1.32471
1.32536
1.32547
1.32606
1.32665
1.32722
1.32733
1.32793
1.32864
1.32945
1.3296
1.33056
1.33177
1.33318
1.33345
1.33511
1.33719
1.33948
1.33992
1.34252
1.34566
1.34904
1.3497
1.35356
1.35821
1.36325
1.36424
1.37
1.37702
1.38466
1.38618
1.39498
1.40565
1.41743
1.41974
1.43297
1.32043
1.32132
1.32149
1.32237
1.32316
1.3238
1.32392
1.32459
1.32522
1.3258
1.32592
1.32661
1.32738
1.32819
1.32836
1.32939
1.33063
1.33201
1.33229
1.334
1.33604
1.33826
1.3387
1.34133
1.34442
1.34775
1.34841
1.35229
1.35691
1.36189
1.36288
1.36869
1.37568
1.38327
1.38478
1.39362
1.40429
1.41601
1.41832
1.43163
1.3203
1.32131
1.32147
1.32223
1.32303
1.32378
1.3239
1.32444
1.32509
1.32579
1.3259
1.32647
1.32726
1.32818
1.32834
1.32925
1.33052
1.332
1.33228
1.33385
1.33593
1.33825
1.33868
1.34117
1.34429
1.34773
1.34839
1.35212
1.35677
1.36187
1.36286
1.36851
1.37552
1.38324
1.38476
1.39343
1.40411
1.41598
1.41829
1.43144
1.31846
1.31942
1.31959
1.32037
1.32118
1.32192
1.32204
1.32265
1.32335
1.32406
1.32418
1.32484
1.32568
1.32662
1.32679
1.32777
1.32907
1.33054
1.33082
1.33243
1.33449
1.33676
1.3372
1.3397
1.3428
1.34619
1.34685
1.35061
1.35524
1.3603
1.36128
1.36696
1.37395
1.38161
1.38312
1.39183
1.40247
1.41427
1.41658
1.42975
1.31636
1.31725
1.31741
1.31825
1.31906
1.31977
1.3199
1.3206
1.32132
1.32203
1.32217
1.32293
1.32381
1.32475
1.32494
1.32602
1.32734
1.32879
1.32907
1.33075
1.33279
1.33502
1.33545
1.33801
1.3411
1.34443
1.34509
1.3489
1.35351
1.35851
1.3595
1.36523
1.3722
1.37978
1.38129
1.39003
1.40063
1.41231
1.41461
1.42781
1.314
1.3148
1.31496
1.31586
1.31667
1.31734
1.31747
1.31827
1.31902
1.31971
1.31986
1.32075
1.32166
1.32259
1.32279
1.32399
1.32533
1.32674
1.32703
1.32881
1.33085
1.33302
1.33346
1.3361
1.33917
1.34244
1.3431
1.347
1.3516
1.35653
1.35752
1.36333
1.37027
1.37776
1.37927
1.38806
1.39861
1.41014
1.41244
1.42565
1.31376
1.31477
1.31493
1.31562
1.31644
1.31731
1.31744
1.31801
1.3188
1.31968
1.31982
1.32048
1.32145
1.32256
1.32275
1.32372
1.32512
1.32671
1.327
1.32854
1.33063
1.33299
1.33342
1.33582
1.33895
1.34241
1.34307
1.34672
1.35136
1.35649
1.35748
1.36303
1.37001
1.37772
1.37923
1.38776
1.39832
1.4101
1.41239
1.42532
1.31109
1.31203
1.31218
1.31292
1.31375
1.31458
1.31472
1.31538
1.3162
1.31707
1.31722
1.31799
1.31899
1.3201
1.3203
1.32138
1.3228
1.32438
1.32467
1.3263
1.3284
1.33073
1.33117
1.33364
1.33677
1.3402
1.34085
1.34459
1.34923
1.35431
1.35529
1.36092
1.36788
1.37551
1.37701
1.38559
1.3961
1.40773
1.41001
1.42293
1.30816
1.309
1.30915
1.30997
1.3108
1.31157
1.31172
1.31249
1.31333
1.31416
1.31432
1.31523
1.31626
1.31734
1.31756
1.31878
1.32022
1.32176
1.32207
1.32383
1.32594
1.32821
1.32866
1.33127
1.33439
1.33776
1.33843
1.34228
1.34692
1.35193
1.35292
1.35865
1.3656
1.37313
1.37463
1.38328
1.39374
1.4052
1.40746
1.4204
1.30497
1.30568
1.30584
1.30676
1.30759
1.30828
1.30842
1.30934
1.3102
1.31097
1.31114
1.31221
1.31327
1.3143
1.31452
1.31591
1.31738
1.31887
1.31918
1.32111
1.32323
1.32545
1.32591
1.32867
1.33181
1.33511
1.33578
1.33978
1.34442
1.34936
1.35035
1.35622
1.36315
1.37058
1.37208
1.38083
1.39123
1.40251
1.40476
1.41772
1.30461
1.30564
1.30579
1.30639
1.30724
1.30823
1.30838
1.30894
1.30985
1.31092
1.31108
1.31179
1.31292
1.31425
1.31446
1.31548
1.31704
1.31882
1.31913
1.32069
1.3229
1.3254
1.32585
1.32825
1.33147
1.33506
1.33572
1.33936
1.34407
1.3493
1.3503
1.35581
1.36279
1.37052
1.37202
1.38041
1.39083
1.40244
1.40469
1.41727
1.3011
1.30203
1.30218
1.30287
1.30372
1.30464
1.30479
1.30548
1.30641
1.30743
1.3076
1.30845
1.30962
1.31091
1.31113
1.31231
1.31389
1.31564
1.31596
1.31767
1.31991
1.32238
1.32284
1.32539
1.32862
1.33217
1.33285
1.33663
1.34135
1.34653
1.34753
1.35316
1.36015
1.3678
1.36929
1.37777
1.38815
1.39959
1.40183
1.41442
1.29733
1.29813
1.29828
1.29909
1.29995
1.30076
1.30092
1.30177
1.30271
1.30366
1.30384
1.30487
1.30605
1.30728
1.30752
1.30889
1.31049
1.31219
1.31252
1.31443
1.3167
1.31911
1.31958
1.32232
1.32557
1.32906
1.32975
1.33371
1.33845
1.34356
1.34456
1.35037
1.35736
1.3649
1.3664
1.375
1.38533
1.39659
1.39881
1.41146
1.29329
1.29393
1.29408
1.29505
1.29591
1.2966
1.29676
1.2978
1.29875
1.29959
1.29978
1.30103
1.30222
1.30337
1.30362
1.30522
1.30684
1.30847
1.30881
1.31096
1.31324
1.31558
1.31606
1.31903
1.3223
1.32572
1.32642
1.3306
1.33536
1.34038
1.3414
1.3474
1.35439
1.36182
1.36333
1.37208
1.38238
1.39344
1.39566
1.40838
1.28898
1.28943
1.28958
1.29073
1.2916
1.29215
1.29231
1.29356
1.29451
1.29524
1.29544
1.29692
1.29813
1.29917
1.29944
1.30129
1.30294
1.30446
1.30482
1.30723
1.30953
1.31178
1.31229
1.31551
1.31881
1.32213
1.32285
1.32728
1.33206
1.33698
1.33801
1.34425
1.35125
1.35855
1.36007
1.36901
1.37928
1.39014
1.39235
1.40518
1.28839
1.28935
1.2895
1.29014
1.29104
1.29207
1.29223
1.29293
1.29396
1.29516
1.29535
1.29626
1.29759
1.29909
1.29934
1.30062
1.3024
1.30438
1.30473
1.30656
1.309
1.3117
1.31219
1.31485
1.31828
1.32204
1.32275
1.32664
1.33153
1.33689
1.33792
1.34363
1.35072
1.35846
1.35997
1.36841
1.37871
1.39003
1.39224
1.40455
1.28375
1.28453
1.28468
1.2855
1.28641
1.2873
1.28747
1.28839
1.28943
1.2905
1.2907
1.29186
1.29319
1.29459
1.29486
1.29639
1.29819
1.30008
1.30045
1.30254
1.30501
1.30762
1.30813
1.31105
1.31451
1.31819
1.31892
1.32306
1.32799
1.33326
1.3343
1.34025
1.34736
1.35499
1.3565
1.36513
1.37543
1.38656
1.38876
1.40119
1.27882
1.27939
1.27954
1.28058
1.28149
1.28222
1.28239
1.28357
1.28462
1.28554
1.28576
1.28719
1.28853
1.2898
1.29008
1.2919
1.29371
1.29548
1.29587
1.29826
1.30075
1.30326
1.30379
1.30701
1.3105
1.31408
1.31483
1.31926
1.32422
1.32939
1.33045
1.33666
1.34381
1.35131
1.35283
1.36169
1.37198
1.38291
1.38511
1.39768
1.27359
1.27392
1.27407
1.27536
1.27627
1.2768
1.27699
1.27845
1.27951
1.28026
1.28049
1.28223
1.28358
1.28468
1.28499
1.28713
1.28896
1.29058
1.29099
1.29372
1.29623
1.2986
1.29915
1.30271
1.30623
1.30969
1.31046
1.31522
1.32022
1.32527
1.32635
1.33287
1.34004
1.3474
1.34894
1.35806
1.36836
1.37907
1.38127
1.39403
1.27278
1.2738
1.27396
1.27455
1.2755
1.27669
1.27686
1.27758
1.27875
1.28014
1.28035
1.28133
1.28283
1.28456
1.28485
1.28622
1.28821
1.29046
1.29085
1.29281
1.29549
1.29847
1.29901
1.30182
1.3055
1.30956
1.31031
1.31436
1.31949
1.32514
1.3262
1.33204
1.33932
1.34726
1.3488
1.35727
1.36761
1.37893
1.38112
1.39324
1.2672
1.26799
1.26814
1.26897
1.26993
1.27092
1.2711
1.27211
1.27328
1.2745
1.27473
1.27601
1.27752
1.27911
1.27941
1.28111
1.28311
1.28522
1.28563
1.28792
1.29063
1.29349
1.29405
1.2972
1.30092
1.30486
1.30564
1.31001
1.3152
1.32072
1.32181
1.32796
1.33529
1.3431
1.34465
1.35338
1.36375
1.37486
1.37706
1.38938
1.26131
1.26182
1.26198
1.26309
1.26405
1.2648
1.26499
1.26633
1.2675
1.26851
1.26876
1.27039
1.27191
1.2733
1.27362
1.27569
1.27771
1.27964
1.28007
1.28274
1.28548
1.28818
1.28876
1.29229
1.29605
1.29985
1.30065
1.3054
1.31063
1.31602
1.31713
1.32364
1.33101
1.33867
1.34023
1.34928
1.35967
1.37057
1.37278
1.38533
1.25511
1.2553
1.25546
1.25689
1.25784
1.25832
1.25853
1.26022
1.26139
1.26216
1.26242
1.26445
1.26596
1.26713
1.26747
1.26996
1.27198
1.27371
1.27416
1.27726
1.28001
1.28252
1.28313
1.28709
1.29088
1.29451
1.29534
1.3005
1.30579
1.311
1.31214
1.31905
1.32647
1.33395
1.33554
1.34494
1.35537
1.36603
1.36825
1.38109
1.25402
1.25514
1.25529
1.2558
1.25681
1.25816
1.25835
1.25907
1.26037
1.26199
1.26223
1.26325
1.26494
1.26696
1.26728
1.26874
1.27097
1.27353
1.27396
1.27605
1.27901
1.28234
1.28292
1.2859
1.28989
1.29432
1.29513
1.29936
1.30481
1.31081
1.31193
1.31796
1.32551
1.33376
1.33533
1.34391
1.3544
1.36583
1.36805
1.38008
1.24742
1.24823
1.24839
1.24921
1.25022
1.2513
1.2515
1.25257
1.25387
1.25525
1.25551
1.25692
1.25861
1.2604
1.26074
1.26261
1.26484
1.2672
1.26766
1.27017
1.27315
1.2763
1.27691
1.28031
1.28434
1.28861
1.28944
1.29409
1.2996
1.30544
1.30659
1.31301
1.32063
1.32871
1.33031
1.33924
1.34978
1.361
1.36322
1.37554
1.2405
1.24095
1.24111
1.2423
1.2433
1.24407
1.24428
1.24575
1.24704
1.24813
1.2484
1.25025
1.25193
1.25346
1.25382
1.25614
1.25839
1.2605
1.26098
1.26396
1.26697
1.26989
1.27053
1.2744
1.27847
1.28252
1.28339
1.2885
1.29407
1.29972
1.3009
1.30777
1.31544
1.32333
1.32496
1.33429
1.34488
1.35586
1.3581
1.37076
1.23322
1.23327
1.23344
1.23504
1.23603
1.23644
1.23666
1.23859
1.23986
1.24062
1.24091
1.24324
1.24491
1.24612
1.24651
1.24934
1.25158
1.2534
1.25391
1.25741
1.26043
1.26308
1.26375
1.26816
1.27225
1.27606
1.27695
1.2826
1.28821
1.29362
1.29483
1.3022
1.30994
1.31758
1.31924
1.32904
1.33969
1.35039
1.35265
1.36571
1.2318
1.23305
1.2332
1.23362
1.23469
1.23621
1.23641
1.23709
1.23851
1.24038
1.24064
1.24169
1.24356
1.24587
1.24623
1.24777
1.25024
1.25315
1.25362
1.25584
1.2591
1.26282
1.26345
1.26661
1.27093
1.27579
1.27665
1.2811
1.28691
1.29335
1.29453
1.30078
1.30866
1.31731
1.31895
1.32768
1.33841
1.35011
1.35236
1.36441
1.22408
1.22495
1.22511
1.22593
1.22698
1.22817
1.22838
1.2295
1.23091
1.23245
1.23273
1.23425
1.23611
1.23811
1.23849
1.24052
1.24299
1.24562
1.24612
1.24885
1.25212
1.25558
1.25625
1.25992
1.26427
1.26889
1.26979
1.27474
1.2806
1.28682
1.28804
1.29477
1.30273
1.31115
1.31282
1.322
1.33281
1.34425
1.34652
1.35896
1.21601
1.21642
1.21659
1.21787
1.21892
1.2197
1.21993
1.22155
1.22295
1.22411
1.22441
1.22645
1.2283
1.22994
1.23034
1.23293
1.23539
1.23768
1.23821
1.24149
1.24478
1.24793
1.24863
1.25286
1.25725
1.26158
1.26251
1.26801
1.27394
1.27988
1.28114
1.2884
1.29643
1.30459
1.30629
1.31597
1.32685
1.338
1.3403
1.35318
1.20755
1.20746
1.20763
1.20943
1.21048
1.21081
1.21105
1.21323
1.2146
1.21534
1.21566
1.21829
1.22011
1.22135
1.22177
1.22497
1.22741
1.22931
1.22987
1.23379
1.23706
1.23985
1.24059
1.24545
1.24984
1.25383
1.2548
1.26094
1.26689
1.27251
1.2738
1.28168
1.28977
1.2976
1.29933
1.30959
1.32054
1.33134
1.33366
1.34707
1.2057
1.20714
1.20731
1.20761
1.20874
1.21049
1.2107
1.21132
1.21287
1.215
1.21529
1.21632
1.21838
1.221
1.22138
1.22297
1.22568
1.22895
1.22947
1.23179
1.23534
1.23948
1.24017
1.24347
1.24813
1.25345
1.25438
1.25902
1.2652
1.27212
1.27338
1.27984
1.28809
1.2972
1.29891
1.30783
1.31887
1.33093
1.33324
1.34539
1.19674
1.19769
1.19786
1.19868
1.1998
1.20111
1.20134
1.20251
1.20404
1.20575
1.20606
1.20767
1.20971
1.21193
1.21234
1.21452
1.21722
1.22012
1.22066
1.22358
1.22713
1.23092
1.23164
1.23556
1.24024
1.24522
1.24619
1.25143
1.25765
1.26426
1.26555
1.27259
1.28091
1.28972
1.29146
1.30093
1.31204
1.32378
1.32612
1.33876
1.18737
1.18777
1.18794
1.18934
1.19046
1.19128
1.19152
1.19329
1.19481
1.19605
1.19638
1.19862
1.20064
1.20241
1.20285
1.20567
1.20835
1.21083
1.2114
1.21498
1.21853
1.22191
1.22267
1.22723
1.23194
1.23654
1.23754
1.24342
1.24969
1.25593
1.25727
1.26493
1.27332
1.28177
1.28355
1.29359
1.30479
1.31616
1.31853
1.3317
1.17758
1.17735
1.17753
1.17958
1.1807
1.18095
1.18122
1.18367
1.18516
1.18587
1.18622
1.18917
1.19115
1.19241
1.19288
1.19644
1.19909
1.20106
1.20168
1.20599
1.20952
1.21242
1.21323
1.21853
1.22324
1.22738
1.22842
1.23504
1.24133
1.24712
1.2485
1.25688
1.26531
1.27332
1.27513
1.28587
1.29712
1.30805
1.31044
1.32426
1.17523
1.17691
1.17709
1.17728
1.17849
1.1805
1.18073
1.18128
1.18297
1.1854
1.18571
1.18672
1.18896
1.19193
1.19234
1.19396
1.1969
1.20056
1.20111
1.2035
1.20734
1.21191
1.21264
1.21607
1.22106
1.22684
1.22783
1.23263
1.23916
1.24658
1.2479
1.25455
1.26315
1.27275
1.27453
1.28362
1.29497
1.30746
1.30984
1.32209
1.16487
1.16594
1.16612
1.16695
1.16817
1.16963
1.16988
1.1711
1.17277
1.17468
1.17501
1.17671
1.17893
1.1814
1.18184
1.18416
1.18708
1.19026
1.19085
1.19396
1.19778
1.20189
1.20266
1.2068
1.2118
1.21714
1.21817
1.22367
1.23024
1.23722
1.23858
1.24591
1.25457
1.26374
1.26556
1.27529
1.28671
1.29877
1.30118
1.31402
1.15404
1.15444
1.15463
1.15615
1.15738
1.15824
1.15851
1.16045
1.1621
1.16344
1.1638
1.16624
1.16844
1.17035
1.17083
1.17389
1.1768
1.17945
1.18008
1.18393
1.18775
1.19135
1.19218
1.19705
1.20207
1.20693
1.208
1.21422
1.22083
1.22734
1.22875
1.23677
1.24549
1.25421
1.25606
1.26645
1.27794
1.28954
1.29198
1.30543
1.14274
1.14237
1.14257
1.14489
1.14611
1.14629
1.14658
1.14934
1.15097
1.15164
1.15203
1.15532
1.15748
1.15876
1.15928
1.1632
1.16606
1.1681
1.16877
1.1735
1.17728
1.18028
1.18116
1.1869
1.19189
1.19617
1.19729
1.20437
1.21098
1.21692
1.21838
1.22722
1.23597
1.24412
1.24601
1.2572
1.26873
1.27975
1.28221
1.29642
1.13979
1.14177
1.14195
1.14202
1.14335
1.14567
1.14592
1.14638
1.14822
1.151
1.15133
1.1523
1.15474
1.15809
1.15854
1.16015
1.16333
1.16741
1.168
1.17044
1.17455
1.17958
1.18036
1.18387
1.18918
1.19544
1.19648
1.2014
1.20827
1.21616
1.21755
1.22433
1.23326
1.24333
1.24518
1.25438
1.26601
1.27892
1.28137
1.29367
1.1278
1.12903
1.12923
1.13007
1.13139
1.13305
1.13332
1.13459
1.13641
1.13855
1.13891
1.14071
1.14312
1.14585
1.14634
1.14879
1.15194
1.15542
1.15606
1.15934
1.16343
1.16787
1.1687
1.17306
1.17835
1.18405
1.18514
1.19088
1.19776
1.20511
1.20654
1.21411