/*--------------------------------*- C++ -*----------------------------------*\
| =========                 |                                                 |
| \\      /  F ield         | OpenFOAM: The Open Source CFD Toolbox           |
|  \\    /   O peration     | Version:  2506                                  |
|   \\  /    A nd           | Website:  www.openfoam.com                      |
|    \\/     M anipulation  |                                                 |
\*---------------------------------------------------------------------------*/
FoamFile
{
    version     2.0;
    format      ascii;
    arch        "LSB;label=32;scalar=64";
    class       volScalarField;
    location    "1000";
    object      nut;
}
// * * * * * * * * * * * * * * * * * * * * * * * * * * * * * * * * * * * * * //

dimensions      [0 2 -1 0 0 0 0];

internalField   nonuniform List<scalar> 
72100
(
2.61593e-09
2.52086e-09
2.52062e-09
2.53769e-09
2.48752e-09
2.39412e-09
2.38181e-09
2.38205e-09
2.3237e-09
2.21571e-09
2.20223e-09
2.19989e-09
2.13046e-09
2.00672e-09
1.99225e-09
1.98683e-09
1.9058e-09
1.76606e-09
1.75031e-09
1.74048e-09
1.64697e-09
1.49113e-09
1.47366e-09
1.45811e-09
1.3541e-09
1.18563e-09
1.16657e-09
1.14493e-09
1.03313e-09
8.58293e-10
8.38566e-10
8.12461e-10
7.012e-10
5.36443e-10
5.19118e-10
4.94087e-10
4.03773e-10
2.742e-10
2.65104e-10
2.53363e-10
4.5336e-08
3.91084e-08
3.90725e-08
4.24058e-08
4.17202e-08
3.73029e-08
3.74106e-08
4.05976e-08
3.97881e-08
3.5456e-08
3.56391e-08
3.8479e-08
3.74913e-08
3.32449e-08
3.34622e-08
3.58854e-08
3.47187e-08
3.05837e-08
3.07961e-08
3.27311e-08
3.1366e-08
2.73609e-08
2.75322e-08
2.89085e-08
2.73663e-08
2.35527e-08
2.36557e-08
2.44091e-08
2.2673e-08
1.91051e-08
1.91233e-08
1.9219e-08
1.73347e-08
1.4135e-08
1.40734e-08
1.35799e-08
1.16957e-08
9.07537e-09
8.96668e-09
8.10348e-09
1.33033e-07
1.15619e-07
1.15539e-07
1.26423e-07
1.24299e-07
1.10341e-07
1.10678e-07
1.21271e-07
1.18671e-07
1.04979e-07
1.05545e-07
1.15218e-07
1.1199e-07
9.85518e-08
9.9225e-08
1.07739e-07
1.03907e-07
9.07963e-08
9.14583e-08
9.8553e-08
9.40952e-08
8.13687e-08
8.19101e-08
8.73135e-08
8.23364e-08
7.01853e-08
7.05215e-08
7.39664e-08
6.84589e-08
5.70639e-08
5.71421e-08
5.84404e-08
5.25688e-08
4.23268e-08
4.21574e-08
4.14387e-08
3.56498e-08
2.72433e-08
2.69304e-08
2.47951e-08
9.08513e-07
8.45535e-07
8.4397e-07
8.77331e-07
8.66912e-07
8.14246e-07
8.14806e-07
8.50962e-07
8.39174e-07
7.86452e-07
7.87837e-07
8.2088e-07
8.05867e-07
7.52126e-07
7.53802e-07
7.8234e-07
7.636e-07
7.08555e-07
7.1003e-07
7.32566e-07
7.09247e-07
6.52361e-07
6.53124e-07
6.68027e-07
6.40053e-07
5.81536e-07
5.81139e-07
5.86419e-07
5.52579e-07
4.92348e-07
4.90402e-07
4.83992e-07
4.44148e-07
3.83295e-07
3.7968e-07
3.61303e-07
3.16522e-07
2.59756e-07
2.55232e-07
2.2625e-07
3.54636e-06
3.4565e-06
3.44876e-06
3.45746e-06
3.42724e-06
3.35345e-06
3.35023e-06
3.37522e-06
3.34749e-06
3.27175e-06
3.26973e-06
3.28986e-06
3.25447e-06
3.17085e-06
3.1687e-06
3.17951e-06
3.13274e-06
3.03804e-06
3.03472e-06
3.03181e-06
2.96849e-06
2.85788e-06
2.85217e-06
2.83075e-06
2.74808e-06
2.61843e-06
2.60906e-06
2.56201e-06
2.45161e-06
2.29692e-06
2.28225e-06
2.2004e-06
2.05605e-06
1.872e-06
1.8505e-06
1.7286e-06
1.54489e-06
1.34099e-06
1.31572e-06
1.14687e-06
9.54392e-06
9.52579e-06
9.50962e-06
9.38017e-06
9.31354e-06
9.2921e-06
9.27804e-06
9.18743e-06
9.14029e-06
9.12101e-06
9.10904e-06
9.00908e-06
8.95117e-06
8.9163e-06
8.90312e-06
8.7822e-06
8.70175e-06
8.64166e-06
8.62542e-06
8.47313e-06
8.35433e-06
8.25438e-06
8.23282e-06
8.03856e-06
7.87108e-06
7.71906e-06
7.68937e-06
7.43624e-06
7.19301e-06
6.96513e-06
6.9228e-06
6.58727e-06
6.2428e-06
5.91016e-06
5.84802e-06
5.41324e-06
4.93161e-06
4.48459e-06
4.41015e-06
3.83016e-06
1.2342e-05
1.24163e-05
1.24047e-05
1.22808e-05
1.21779e-05
1.21009e-05
1.20821e-05
1.20122e-05
1.19321e-05
1.18635e-05
1.18508e-05
1.17792e-05
1.16822e-05
1.15957e-05
1.15838e-05
1.14937e-05
1.13644e-05
1.1246e-05
1.12322e-05
1.11081e-05
1.09266e-05
1.07559e-05
1.07369e-05
1.05626e-05
1.03184e-05
1.00807e-05
1.00532e-05
9.80409e-06
9.46535e-06
9.13154e-06
9.09004e-06
8.73184e-06
8.27069e-06
7.80887e-06
7.74403e-06
7.24989e-06
6.62541e-06
6.02611e-06
5.95138e-06
5.24563e-06
1.57847e-05
1.57688e-05
1.57483e-05
1.55875e-05
1.54588e-05
1.54037e-05
1.53861e-05
1.53126e-05
1.52501e-05
1.52294e-05
1.52156e-05
1.51782e-05
1.51205e-05
1.50946e-05
1.50794e-05
1.50521e-05
1.49798e-05
1.49311e-05
1.4912e-05
1.48775e-05
1.47672e-05
1.46675e-05
1.46407e-05
1.45841e-05
1.44326e-05
1.42699e-05
1.4234e-05
1.41392e-05
1.39207e-05
1.36659e-05
1.36159e-05
1.34648e-05
1.31668e-05
1.27975e-05
1.27301e-05
1.25227e-05
1.21491e-05
1.16988e-05
1.16211e-05
1.12084e-05
2.48264e-05
2.48805e-05
2.48619e-05
2.46326e-05
2.44262e-05
2.43368e-05
2.43074e-05
2.41568e-05
2.40557e-05
2.40401e-05
2.40208e-05
2.39368e-05
2.38636e-05
2.38613e-05
2.38424e-05
2.37772e-05
2.36961e-05
2.36777e-05
2.36544e-05
2.35749e-05
2.34437e-05
2.33623e-05
2.33275e-05
2.32057e-05
2.30154e-05
2.2848e-05
2.27983e-05
2.26005e-05
2.22962e-05
2.19906e-05
2.19183e-05
2.16062e-05
2.11582e-05
2.06765e-05
2.05739e-05
2.01234e-05
1.95185e-05
1.88663e-05
1.87357e-05
1.81938e-05
4.52638e-05
4.49685e-05
4.48656e-05
4.44111e-05
4.41e-05
4.40362e-05
4.39671e-05
4.36037e-05
4.34353e-05
4.35108e-05
4.35023e-05
4.3166e-05
4.30302e-05
4.31567e-05
4.31858e-05
4.28066e-05
4.2642e-05
4.27792e-05
4.28357e-05
4.23585e-05
4.21029e-05
4.22077e-05
4.22829e-05
4.16461e-05
4.12532e-05
4.12996e-05
4.1391e-05
4.05018e-05
3.98621e-05
3.97909e-05
3.98929e-05
3.86079e-05
3.76038e-05
3.73567e-05
3.74581e-05
3.56168e-05
3.40397e-05
3.35495e-05
3.37722e-05
3.08427e-05
5.25748e-05
5.2549e-05
5.24243e-05
5.19584e-05
5.15696e-05
5.14012e-05
5.13105e-05
5.09345e-05
5.06714e-05
5.06498e-05
5.06304e-05
5.02912e-05
5.00539e-05
5.00893e-05
5.01186e-05
4.974e-05
4.94591e-05
4.95015e-05
4.95668e-05
4.90851e-05
4.86899e-05
4.86877e-05
4.87788e-05
4.81207e-05
4.75541e-05
4.74692e-05
4.75813e-05
4.66342e-05
4.5767e-05
4.55201e-05
4.56442e-05
4.4234e-05
4.29256e-05
4.24413e-05
4.25673e-05
4.05074e-05
3.85375e-05
3.77591e-05
3.80398e-05
3.4769e-05
4.86016e-05
4.86348e-05
4.86299e-05
4.8527e-05
4.81694e-05
4.77949e-05
4.77334e-05
4.75453e-05
4.72576e-05
4.70167e-05
4.69766e-05
4.69527e-05
4.67539e-05
4.65772e-05
4.65478e-05
4.66058e-05
4.64248e-05
4.62508e-05
4.62221e-05
4.63047e-05
4.60888e-05
4.58594e-05
4.5823e-05
4.58663e-05
4.55699e-05
4.52214e-05
4.51633e-05
4.50771e-05
4.45884e-05
4.39937e-05
4.38881e-05
4.35387e-05
4.27508e-05
4.18148e-05
4.16491e-05
4.09547e-05
3.98476e-05
3.8546e-05
3.83226e-05
3.73515e-05
6.19069e-05
6.1926e-05
6.19284e-05
6.18853e-05
6.14893e-05
6.10048e-05
6.09252e-05
6.0667e-05
6.02607e-05
5.98904e-05
5.98339e-05
5.97546e-05
5.94548e-05
5.91722e-05
5.91309e-05
5.9164e-05
5.89e-05
5.86348e-05
5.85971e-05
5.86731e-05
5.83922e-05
5.8082e-05
5.8037e-05
5.80871e-05
5.77172e-05
5.72837e-05
5.72192e-05
5.71417e-05
5.65782e-05
5.58783e-05
5.57609e-05
5.53632e-05
5.44281e-05
5.33073e-05
5.31113e-05
5.22579e-05
5.09177e-05
4.93349e-05
4.9067e-05
4.78712e-05
9.71647e-05
9.61228e-05
9.56007e-05
9.48216e-05
9.41398e-05
9.37831e-05
9.35489e-05
9.28914e-05
9.24007e-05
9.23148e-05
9.22138e-05
9.16288e-05
9.12236e-05
9.13089e-05
9.13217e-05
9.06983e-05
9.02744e-05
9.0458e-05
9.05657e-05
8.98041e-05
8.92577e-05
8.94807e-05
8.96703e-05
8.8648e-05
8.78627e-05
8.80782e-05
8.83491e-05
8.68862e-05
8.56741e-05
8.58104e-05
8.61611e-05
8.39672e-05
8.20741e-05
8.20904e-05
8.25361e-05
7.92506e-05
7.63295e-05
7.63038e-05
7.72713e-05
7.19883e-05
0.00010773
0.00010706
0.000106445
0.000105606
0.000104809
0.000104314
0.000104035
0.000103367
0.000102766
0.000102543
0.0001024
0.000101799
0.000101256
0.000101196
0.00010117
0.000100525
9.99353e-05
9.99585e-05
0.00010003
9.92385e-05
9.84924e-05
9.85328e-05
9.86893e-05
9.76203e-05
9.65937e-05
9.65924e-05
9.68301e-05
9.52885e-05
9.37756e-05
9.3642e-05
9.3956e-05
9.16274e-05
8.93457e-05
8.90026e-05
8.94007e-05
8.58757e-05
8.24264e-05
8.19137e-05
8.28331e-05
7.7143e-05
9.36354e-05
9.34034e-05
9.34049e-05
9.35398e-05
9.3032e-05
9.22142e-05
9.21145e-05
9.19422e-05
9.12878e-05
9.05024e-05
9.04072e-05
9.03726e-05
8.97663e-05
8.906e-05
8.89806e-05
8.90798e-05
8.84932e-05
8.7795e-05
8.77213e-05
8.78881e-05
8.72764e-05
8.65382e-05
8.64595e-05
8.66153e-05
8.59073e-05
8.50151e-05
8.49083e-05
8.49032e-05
8.39758e-05
8.27742e-05
8.26092e-05
8.22361e-05
8.08689e-05
7.91294e-05
7.88548e-05
7.77727e-05
7.58563e-05
7.34e-05
7.30191e-05
7.14734e-05
0.000109574
0.000109214
0.000109209
0.000109381
0.000108819
0.000107873
0.000107766
0.000107628
0.000106877
0.000105928
0.000105822
0.000105794
0.000105066
0.000104185
0.000104087
0.000104174
0.000103429
0.000102528
0.000102426
0.000102552
0.00010174
0.000100781
0.000100674
0.000100788
9.98734e-05
9.87453e-05
9.86077e-05
9.8528e-05
9.73622e-05
9.58801e-05
9.56756e-05
9.51858e-05
9.35345e-05
9.14805e-05
9.11589e-05
8.98613e-05
8.76026e-05
8.46962e-05
8.42571e-05
8.24694e-05
0.000125933
0.000125442
0.000125441
0.0001257
0.000125099
0.000124017
0.000123898
0.000123789
0.000122917
0.000121789
0.000121667
0.000121658
0.000120796
0.000119723
0.000119611
0.00011971
0.00011882
0.000117717
0.000117594
0.000117691
0.000116662
0.000115445
0.000115308
0.000115354
0.000114206
0.000112805
0.000112632
0.000112453
0.000111011
0.000109214
0.000108962
0.000108305
0.000106314
0.000103891
0.000103507
0.000101943
9.92619e-05
9.58493e-05
9.53287e-05
9.32159e-05
0.000180818
0.000178065
0.000176367
0.000174776
0.000173395
0.000172492
0.000171825
0.000170625
0.000169577
0.000169116
0.000168666
0.000167556
0.000166605
0.00016642
0.000166122
0.000164974
0.000163997
0.000164008
0.000163841
0.000162514
0.000161356
0.000161469
0.000161408
0.000159689
0.000158135
0.000158272
0.00015831
0.000155932
0.0001537
0.000153782
0.000153917
0.000150448
0.000147125
0.000147101
0.000147347
0.000142188
0.000137168
0.000137184
0.000138197
0.000129493
0.000195194
0.000193233
0.00019153
0.000189897
0.000188373
0.000187297
0.00018656
0.000185327
0.000184144
0.00018353
0.000183018
0.000181877
0.000180766
0.000180415
0.000180045
0.000178853
0.000177683
0.000177506
0.000177259
0.000175869
0.000174473
0.000174358
0.000174199
0.000172378
0.000170517
0.000170367
0.000170286
0.000167754
0.000165135
0.000164847
0.000164834
0.000161139
0.000157317
0.0001568
0.000156857
0.000151366
0.000145673
0.000145008
0.000145768
0.000136725
0.000164178
0.000163297
0.000163318
0.000164004
0.000163339
0.000161815
0.000161677
0.000161814
0.000160617
0.000158896
0.000158726
0.000158898
0.000157591
0.000155887
0.000155727
0.000156026
0.000154677
0.000152971
0.000152811
0.000153144
0.000151605
0.000149638
0.000149424
0.000149518
0.000147698
0.000145463
0.0001452
0.000144966
0.000142764
0.000140026
0.000139653
0.000138753
0.000135863
0.00013234
0.000131793
0.000129694
0.000125898
0.000121135
0.000120377
0.0001173
0.000182356
0.000181304
0.000181325
0.000182199
0.000181522
0.000179832
0.000179686
0.000179926
0.0001786
0.00017663
0.000176435
0.000176643
0.000175127
0.000173128
0.000172942
0.000173248
0.000171658
0.000169644
0.000169456
0.000169821
0.000168076
0.000165789
0.000165546
0.000165599
0.000163449
0.000160821
0.00016051
0.000160165
0.000157571
0.000154397
0.000153963
0.000152859
0.000149504
0.000145475
0.00014485
0.000142419
0.000138058
0.000132681
0.000131806
0.000128183
0.000257478
0.00025524
0.000253344
0.000251358
0.000249471
0.000248128
0.000247035
0.000245308
0.000243715
0.000242879
0.000242055
0.000240381
0.000238847
0.000238319
0.000237619
0.000235866
0.000234255
0.000233955
0.000233356
0.000231373
0.00022952
0.000229347
0.000228802
0.00022631
0.000223886
0.000223677
0.000223142
0.000219782
0.000216434
0.000216102
0.000215553
0.00021081
0.000206006
0.000205464
0.000204875
0.000198004
0.000190905
0.00019026
0.000190323
0.00017968
0.000273496
0.00027221
0.000270456
0.000268557
0.000266595
0.00026509
0.000263938
0.000262201
0.000260468
0.000259454
0.000258563
0.000256875
0.00025517
0.000254446
0.000253664
0.000251876
0.000250054
0.000249533
0.00024883
0.000246789
0.000244681
0.000244253
0.000243578
0.00024099
0.000238241
0.000237708
0.000237005
0.000233486
0.000229722
0.000228968
0.000228201
0.00022322
0.000217883
0.000216777
0.000215905
0.000208683
0.000200884
0.000199454
0.000199126
0.000188017
0.000225773
0.000224144
0.000224184
0.00022561
0.000224898
0.000222687
0.000222529
0.000223215
0.000221579
0.000218905
0.000218673
0.000219193
0.000217155
0.000214328
0.000214076
0.000214628
0.000212384
0.000209483
0.000209217
0.00020978
0.000207376
0.000204234
0.000203903
0.000204113
0.000201124
0.000197449
0.000197011
0.000196585
0.000192995
0.000188636
0.000188043
0.000186604
0.000182109
0.000176746
0.000175916
0.000172786
0.000167091
0.000160173
0.000159007
0.000154182
0.000245789
0.000243863
0.000243904
0.000245593
0.000244873
0.00024245
0.000242285
0.000243186
0.000241441
0.000238452
0.000238208
0.000238875
0.000236611
0.000233413
0.000233123
0.00023378
0.000231229
0.000227907
0.000227605
0.000228227
0.000225462
0.000221913
0.000221551
0.000221805
0.000218425
0.000214248
0.00021376
0.000213261
0.000209182
0.000204263
0.000203597
0.000201956
0.000196892
0.000190907
0.00018998
0.000186489
0.000180143
0.000172512
0.000171217
0.000165853
0.000341742
0.000340047
0.00033836
0.000336366
0.000334265
0.000332654
0.000331193
0.000328988
0.000326863
0.000325629
0.000324394
0.00032212
0.000319947
0.000318999
0.00031782
0.00031537
0.000313031
0.0003123
0.000311132
0.000308368
0.000305695
0.000305094
0.000303882
0.000300491
0.000297074
0.000296347
0.000294978
0.000290493
0.000285881
0.000284902
0.0002833
0.000277136
0.000270702
0.000269332
0.000267393
0.000258689
0.0002494
0.000247641
0.000245989
0.000233074
0.000359665
0.000358959
0.000357429
0.000355592
0.00035347
0.000351726
0.000350236
0.000348063
0.000345805
0.000344385
0.000343091
0.000340823
0.000338473
0.000337316
0.000336053
0.00033359
0.000331028
0.000330059
0.00032878
0.000325968
0.000323024
0.000322143
0.00032079
0.000317309
0.000313555
0.000312482
0.000310924
0.000306278
0.000301237
0.000299812
0.000297955
0.000291535
0.00028455
0.000282582
0.000280297
0.000271214
0.000261208
0.000258613
0.000256477
0.000243035
0.000294444
0.000291733
0.00029178
0.000294161
0.000293396
0.000290354
0.000290185
0.000291746
0.00028969
0.000285899
0.000285614
0.00028685
0.000284005
0.000279844
0.000279488
0.000280578
0.000277268
0.000272864
0.000272467
0.000273415
0.000269735
0.000265111
0.000264637
0.000265147
0.000260768
0.000255356
0.000254719
0.000254184
0.000248919
0.000242599
0.000241726
0.000239695
0.000233251
0.000225717
0.000224523
0.0002202
0.000212289
0.000202923
0.000201282
0.000194599
0.000316302
0.000313147
0.000313199
0.000315939
0.000315172
0.000311783
0.000311611
0.000313565
0.000311376
0.000307199
0.000306903
0.000308453
0.000305369
0.000300742
0.000300362
0.000301718
0.000298032
0.000293109
0.000292681
0.000293819
0.000289707
0.000284515
0.000284014
0.000284674
0.000279807
0.000273806
0.000273108
0.000272592
0.000266759
0.000259757
0.000258808
0.000256625
0.000249501
0.000241219
0.000239924
0.000235236
0.000226572
0.000216384
0.000214592
0.000207374
0.000434488
0.000433085
0.000431602
0.000429746
0.000427622
0.000425936
0.00042423
0.00042166
0.000419088
0.000417507
0.000415877
0.000413008
0.000410196
0.000408819
0.000407138
0.000403948
0.00040083
0.000399614
0.000397813
0.000394178
0.000390597
0.000389464
0.000387472
0.000383067
0.000378557
0.00037719
0.000374832
0.000369085
0.000363094
0.000361304
0.000358409
0.000350662
0.000342467
0.000340035
0.000336366
0.00032566
0.000314057
0.000310829
0.000306868
0.000291431
0.000454422
0.00045408
0.000452743
0.000451067
0.000448945
0.000447141
0.000445435
0.000442943
0.000440252
0.00043848
0.000436805
0.000433976
0.000430987
0.000429388
0.000427636
0.000424458
0.000421114
0.000419644
0.000417742
0.000414083
0.000410218
0.000408796
0.000406662
0.000402178
0.000397321
0.000395599
0.000393051
0.000387144
0.00038072
0.000378475
0.000375314
0.000367303
0.000358545
0.000355506
0.000351465
0.000340355
0.000328025
0.000323944
0.000319441
0.000303432
0.00037041
0.000366129
0.000366189
0.000369846
0.000368984
0.000364872
0.000364705
0.000367504
0.000365008
0.000359835
0.000359596
0.000361957
0.000358294
0.000352529
0.000352082
0.000354151
0.000349631
0.000343435
0.000342921
0.000344611
0.000339433
0.000332882
0.000332254
0.000333317
0.000327317
0.000319915
0.000319045
0.000318616
0.000311419
0.000302849
0.000301654
0.000299081
0.000290358
0.00028033
0.000278724
0.000273055
0.000262597
0.000250491
0.000248284
0.000239575
0.000394162
0.000389077
0.000389209
0.000393557
0.000392618
0.00038796
0.000387777
0.000391265
0.000388591
0.000382864
0.000382602
0.000385451
0.000381608
0.00037523
0.00037478
0.000377307
0.000372378
0.000365549
0.000364989
0.000367074
0.000361399
0.000354118
0.000353444
0.000354839
0.000348294
0.000340157
0.000339229
0.000338963
0.000331136
0.000321766
0.000320486
0.000317856
0.000308371
0.000297486
0.000295759
0.000289748
0.00027845
0.000265408
0.000263029
0.000253797
0.000536155
0.000534894
0.000533529
0.000531782
0.00052971
0.000528062
0.000526207
0.000523391
0.000520475
0.000518649
0.000516666
0.00051326
0.000509848
0.00050807
0.000505905
0.000501979
0.000498086
0.000496377
0.000493937
0.000489389
0.000484856
0.000483145
0.000480324
0.000474826
0.000469154
0.000467065
0.000463644
0.000456536
0.000449086
0.000446372
0.00044205
0.000432594
0.000422537
0.00041887
0.00041324
0.000400376
0.000386348
0.000381369
0.000374674
0.000356487
0.000558162
0.000558093
0.000556866
0.000555313
0.000553239
0.000551468
0.000549628
0.000546933
0.000543914
0.000541893
0.000539889
0.000536559
0.00053297
0.00053096
0.000528739
0.000524854
0.000520735
0.000518763
0.000516239
0.000511691
0.000506875
0.000504865
0.000501918
0.000496361
0.000490338
0.000487889
0.000484291
0.000477036
0.000469142
0.000465979
0.000461404
0.000451683
0.000441057
0.000436801
0.000430798
0.000417514
0.000402754
0.000396942
0.000389685
0.000370891
0.000453589
0.000447587
0.000447535
0.000452816
0.000451925
0.000446138
0.000445928
0.000450629
0.000447614
0.000440878
0.000440642
0.000444708
0.000440032
0.000432515
0.000431897
0.000435461
0.000429773
0.000421556
0.000420809
0.000423714
0.000416898
0.000408043
0.000407237
0.00040922
0.000401387
0.00039167
0.00039057
0.00039052
0.000381154
0.000370078
0.000368539
0.000365521
0.000354252
0.000341526
0.000339445
0.000332294
0.000319023
0.000303964
0.00030109
0.000290166
0.00047917
0.000472454
0.000472384
0.000478301
0.000477131
0.000470917
0.000470692
0.000476226
0.000472983
0.00046573
0.000465255
0.000470297
0.000465207
0.000456801
0.000456343
0.000460727
0.000454592
0.000445476
0.000444686
0.000448294
0.000440905
0.000431219
0.000430361
0.000432914
0.000424432
0.000413818
0.000412666
0.000413002
0.000402882
0.000390875
0.000389243
0.000386324
0.000374221
0.000360515
0.000358307
0.000350909
0.000336709
0.000320613
0.000317552
0.000306145
0.000647058
0.000645834
0.000644524
0.000642852
0.000640815
0.000639255
0.000637311
0.000634319
0.000631161
0.000629179
0.000626906
0.000623029
0.000619097
0.00061698
0.000614382
0.000609749
0.0006051
0.000602921
0.000599887
0.000594432
0.000588951
0.000586658
0.000583023
0.000576394
0.000569524
0.000566689
0.000562185
0.000553658
0.000544704
0.000541015
0.000535224
0.000523985
0.000512011
0.000507016
0.000499316
0.000484183
0.000467654
0.000460744
0.000451063
0.00042994
0.000671188
0.000671328
0.000670166
0.000668703
0.000666661
0.000664962
0.000663043
0.000660208
0.000656949
0.000654767
0.000652489
0.000648726
0.000644616
0.000642261
0.000639623
0.000635068
0.000630185
0.000627733
0.000624636
0.000619219
0.000613443
0.000610854
0.000607117
0.000600455
0.00059323
0.000590039
0.000585382
0.000576723
0.000567312
0.000563194
0.000557176
0.000545672
0.000533126
0.000527576
0.000519528
0.000503962
0.000486711
0.000479025
0.000468795
0.000447043
0.000544486
0.000535982
0.000535889
0.00054368
0.000542559
0.000534735
0.000534476
0.000541594
0.000538023
0.000529238
0.000528926
0.000535383
0.000529533
0.000519831
0.000519271
0.000524833
0.000517389
0.000506867
0.0005061
0.000510945
0.000502217
0.000490991
0.000489936
0.000493356
0.000483409
0.000471075
0.000469677
0.00047033
0.000458527
0.000444759
0.000442792
0.000439482
0.000425432
0.000409878
0.00040724
0.000398582
0.000382264
0.000364203
0.000360561
0.000347261
0.000572117
0.000562452
0.000562616
0.000570932
0.000569743
0.000561119
0.000560839
0.000569027
0.000565219
0.000555561
0.000554947
0.000562964
0.000556662
0.000546019
0.000545143
0.000552097
0.000544317
0.000532502
0.000531916
0.000537745
0.000528364
0.00051611
0.000515013
0.000519262
0.000508602
0.00049515
0.000493719
0.00049499
0.000482368
0.000467444
0.000465399
0.000462357
0.000447389
0.00043076
0.000427975
0.000419167
0.000401915
0.000382739
0.000378897
0.000365182
0.00076738
0.000766153
0.000764863
0.000763213
0.000761196
0.000759726
0.000757721
0.000754591
0.000751247
0.000749182
0.000746677
0.000742405
0.000738035
0.000735658
0.00073267
0.000727407
0.000722084
0.000719496
0.000715901
0.000709584
0.00070318
0.000700327
0.000695936
0.000688176
0.000680119
0.00067655
0.000671005
0.000661058
0.000650594
0.000645933
0.000638698
0.00062566
0.000611762
0.000605413
0.000595649
0.000578214
0.000559172
0.000550256
0.000537507
0.000513354
0.000793663
0.000794021
0.000792902
0.000791473
0.000789446
0.00078783
0.000785849
0.000782903
0.000779461
0.000777187
0.000774685
0.000770564
0.000766011
0.000763386
0.000760388
0.000755235
0.000749667
0.000746804
0.000743172
0.000736921
0.000730213
0.000727062
0.000722607
0.000714835
0.00070641
0.0007025
0.000696832
0.000686757
0.000675838
0.000670767
0.000663338
0.000650034
0.000635569
0.000628714
0.000618642
0.000600767
0.000581017
0.00057141
0.000558163
0.000533377
0.000643095
0.000631561
0.000631734
0.000641986
0.000640585
0.000630337
0.000630005
0.000640149
0.000636042
0.00062429
0.000623887
0.000633447
0.000626694
0.000614094
0.000613665
0.000622518
0.000613547
0.000599866
0.00059914
0.000606741
0.000595745
0.000581495
0.000580467
0.000585839
0.000573362
0.000558354
0.000556561
0.000558193
0.000543668
0.00052697
0.000524528
0.000521023
0.000503934
0.000485548
0.000482296
0.000471987
0.000452506
0.00043163
0.000427122
0.000411302
0.000672552
0.000659614
0.000659437
0.000671361
0.000669498
0.000658285
0.00065794
0.000669779
0.000665065
0.00065226
0.000651839
0.000663365
0.000655797
0.000642101
0.000641638
0.000651627
0.000642368
0.000627488
0.00062637
0.000635571
0.000624059
0.000608566
0.000607439
0.000614066
0.00060101
0.000584295
0.000582543
0.000585028
0.000569504
0.000551488
0.000548962
0.000545959
0.000527829
0.000508209
0.000504825
0.000494508
0.000474076
0.000452014
0.000447293
0.0004312
0.000897192
0.000895943
0.00089465
0.000893009
0.000890996
0.000889609
0.000887547
0.000884302
0.000880799
0.000878712
0.000876012
0.000871411
0.000866657
0.000864099
0.000860768
0.000854942
0.000849006
0.000846097
0.000842013
0.000834888
0.000827625
0.000824277
0.000819194
0.000810344
0.000801142
0.00079689
0.000790372
0.000779048
0.000767143
0.000761565
0.000752951
0.000738164
0.000722403
0.000714756
0.000703001
0.000683313
0.00066183
0.00065094
0.000635192
0.000608039
0.000925636
0.000926248
0.000925168
0.000923755
0.000921719
0.000920178
0.000918157
0.000915101
0.000911489
0.000909204
0.000906516
0.000902071
0.000897134
0.000894342
0.000891002
0.000885305
0.000879124
0.000875946
0.000871847
0.0008648
0.000857234
0.0008536
0.00084848
0.000839621
0.000830042
0.000825469
0.000818853
0.000807407
0.000795033
0.000789082
0.000780323
0.000765254
0.000748923
0.000740833
0.000728834
0.000708694
0.000686516
0.000675058
0.000658893
0.000631105
0.000749475
0.000733972
0.000734122
0.000748034
0.000746698
0.000732781
0.000732776
0.000747032
0.000741586
0.000727134
0.000726628
0.000739642
0.000731676
0.0007162
0.000715252
0.000727936
0.000717462
0.000700618
0.000699643
0.000710387
0.000697467
0.000680303
0.000679241
0.000686721
0.000671855
0.000652907
0.000650799
0.00065379
0.000636324
0.00061642
0.000613455
0.000609752
0.000589333
0.00056824
0.000564297
0.000552164
0.000529404
0.000506108
0.00050066
0.000482145
0.000780926
0.000763302
0.000763887
0.000779382
0.000777516
0.000762449
0.000762441
0.000778312
0.000772557
0.000756093
0.000755976
0.000771363
0.000762919
0.000745396
0.000744774
0.000759296
0.000747746
0.000729635
0.000728546
0.000741637
0.00072824
0.000708976
0.000707819
0.00071721
0.000700622
0.000680648
0.000678354
0.000682652
0.000663998
0.000642438
0.000639474
0.00063649
0.000615003
0.000592491
0.00058839
0.000576426
0.00055275
0.000528183
0.000522501
0.00050386
0.00103639
0.00103512
0.00103383
0.00103218
0.00103013
0.00102884
0.0010267
0.00102333
0.00101969
0.0010176
0.00101471
0.00100982
0.00100474
0.00100207
0.000998438
0.000992125
0.00098565
0.000982492
0.000977969
0.000970124
0.000962059
0.000958274
0.000952565
0.000942709
0.00093245
0.00092763
0.000920212
0.000907612
0.000894354
0.000887974
0.000878089
0.00086168
0.000844183
0.000835366
0.000821762
0.000799958
0.000776201
0.000763494
0.000744936
0.000714941
0.00106696
0.0010679
0.00106686
0.00106544
0.00106335
0.00106191
0.00105982
0.00105663
0.00105287
0.00105059
0.00104772
0.00104299
0.00103772
0.00103482
0.0010312
0.00102501
0.00101828
0.00101489
0.00101037
0.00100259
0.000994216
0.000990165
0.000984438
0.000974549
0.000963896
0.000958784
0.000951316
0.000938561
0.000924824
0.000918127
0.000908138
0.000891435
0.000873353
0.000864178
0.000850406
0.00082813
0.000803696
0.000790556
0.000771685
0.000741076
0.000863754
0.000844074
0.000844194
0.000862451
0.000859758
0.000842977
0.000842476
0.000861125
0.000855555
0.000836273
0.000835633
0.000853657
0.000844467
0.000824554
0.00082381
0.000841132
0.000828234
0.000808617
0.00080687
0.000822235
0.000807462
0.000786182
0.000784747
0.000794692
0.000776859
0.00075462
0.000752228
0.000755965
0.000735391
0.000712612
0.00070868
0.000704964
0.000680816
0.000657276
0.000652522
0.000638253
0.000612151
0.000587061
0.000580534
0.00055904
0.00089682
0.000874697
0.000874789
0.000895438
0.000893117
0.000874
0.000873455
0.000895071
0.000888673
0.000866957
0.000866785
0.000888183
0.000877454
0.000855622
0.000855315
0.000874839
0.000861712
0.000839244
0.000838287
0.000856056
0.000839915
0.000816308
0.000814736
0.000826911
0.000808066
0.000783158
0.000780969
0.000786656
0.000764509
0.000739669
0.00073615
0.00073314
0.000707936
0.000682722
0.000677828
0.000663899
0.000636935
0.000610472
0.000603749
0.000582242
0.00118468
0.00118333
0.00118202
0.00118033
0.00117821
0.00117694
0.00117469
0.00117116
0.00116733
0.00116525
0.00116218
0.00115704
0.00115166
0.00114893
0.00114502
0.00113829
0.00113135
0.00112801
0.0011231
0.0011146
0.00110581
0.00110168
0.00109539
0.00108466
0.00107347
0.00106818
0.00105995
0.00104624
0.00103179
0.00102475
0.00101373
0.000995867
0.000976836
0.000967033
0.000951777
0.000928096
0.000902321
0.000888053
0.000866984
0.000834458
0.0012173
0.00121858
0.00121758
0.00121607
0.00121388
0.00121247
0.00121026
0.00120685
0.00120288
0.00120063
0.0011976
0.00119257
0.00118701
0.00118408
0.0011802
0.00117355
0.00116636
0.00116282
0.00115795
0.00114946
0.00114032
0.00113597
0.00112968
0.00111887
0.00110727
0.00110175
0.0010935
0.00107959
0.00106463
0.00105736
0.00104628
0.00102807
0.00100845
0.000998404
0.000983056
0.000958875
0.000932438
0.000917911
0.000896645
0.00086352
0.000984889
0.000960011
0.000960041
0.000983863
0.000981188
0.000959647
0.000959018
0.0009833
0.000976032
0.000952845
0.000952618
0.000975999
0.00096495
0.000940575
0.000939616
0.000962344
0.000947817
0.000923425
0.000922256
0.000942111
0.000923494
0.000897556
0.000895657
0.000909234
0.000887878
0.00086175
0.000858645
0.000864359
0.000839512
0.00081375
0.000809577
0.000804453
0.000776731
0.00075139
0.000745855
0.00072892
0.000699487
0.000673357
0.000665752
0.000640772
0.00102045
0.000992137
0.000992132
0.00102001
0.00101656
0.000991073
0.000991604
0.00101933
0.00101111
0.000984562
0.000984303
0.0010122
0.000999993
0.000972852
0.000971833
0.00099825
0.000983011
0.000955358
0.000954643
0.000976667
0.000957169
0.000928615
0.000926549
0.000942746
0.000919845
0.000891323
0.000887983
0.000895468
0.000870376
0.000841992
0.000837495
0.00083397
0.000804922
0.000777702
0.000771937
0.00075549
0.000725273
0.000697694
0.000689835
0.000664972
0.0013415
0.00133994
0.00133836
0.00133643
0.00133409
0.00133267
0.00133014
0.00132642
0.00132241
0.00132024
0.00131691
0.00131157
0.00130598
0.00130319
0.00129897
0.00129193
0.00128461
0.00128112
0.00127578
0.00126676
0.00125738
0.001253
0.00124614
0.0012347
0.00122274
0.0012171
0.00120811
0.00119348
0.00117804
0.0011705
0.00115842
0.00113937
0.00111906
0.0011085
0.00109176
0.00106653
0.00103909
0.0010236
0.00100034
0.000965725
0.00137609
0.00137757
0.00137622
0.00137435
0.00137189
0.00137031
0.00136779
0.00136413
0.00135999
0.00135769
0.00135437
0.00134909
0.00134332
0.00134041
0.00133621
0.00132918
0.00132162
0.00131797
0.00131265
0.00130356
0.00129384
0.00128929
0.00128243
0.00127083
0.00125845
0.00125264
0.00124364
0.00122872
0.00121276
0.00120506
0.00119298
0.0011735
0.00115257
0.00114187
0.00112511
0.0010993
0.00107121
0.00105563
0.0010323
0.000997045
0.00111333
0.00108335
0.00108326
0.0011128
0.00110954
0.00108197
0.00108185
0.00111251
0.0011046
0.00107463
0.00107496
0.00110566
0.00109251
0.0010634
0.00106278
0.00109094
0.00107424
0.00104358
0.00104268
0.00106613
0.00104389
0.00101387
0.00101141
0.00102843
0.00100223
0.000972664
0.000969256
0.000975967
0.000947169
0.000918716
0.000913474
0.00090782
0.00087582
0.000849022
0.000842739
0.000822324
0.000789675
0.000763614
0.000754818
0.00072571
0.00115012
0.00111561
0.00111547
0.00114958
0.00114693
0.00111477
0.00111535
0.00115063
0.0011417
0.0011085
0.00110811
0.0011433
0.00113033
0.00109671
0.00109606
0.00112837
0.00110964
0.00107535
0.00107372
0.00110139
0.00107769
0.00104432
0.00104224
0.00106214
0.00103555
0.00100232
0.000998655
0.00100783