/*--------------------------------*- C++ -*----------------------------------*\
| =========                 |                                                 |
| \\      /  F ield         | OpenFOAM: The Open Source CFD Toolbox           |
|  \\    /   O peration     | Version:  2506                                  |
|   \\  /    A nd           | Website:  www.openfoam.com                      |
|    \\/     M anipulation  |                                                 |
\*---------------------------------------------------------------------------*/
FoamFile
{
    version     2.0;
    format      ascii;
    arch        "LSB;label=32;scalar=64";
    class       volScalarField;
    location    "1000";
    object      omega;
}
// * * * * * * * * * * * * * * * * * * * * * * * * * * * * * * * * * * * * * //

dimensions      [0 0 -1 0 0 0 0];

internalField   nonuniform List<scalar> 
72100
(
3.51399e+06
3.51399e+06
3.51399e+06
3.51399e+06
3.51399e+06
3.51399e+06
3.51399e+06
3.51399e+06
3.51399e+06
3.51399e+06
3.51399e+06
3.51399e+06
3.51399e+06
3.51398e+06
3.51398e+06
3.51398e+06
3.51398e+06
3.51398e+06
3.51398e+06
3.51398e+06
3.51398e+06
3.51398e+06
3.51398e+06
3.51397e+06
3.51397e+06
3.51397e+06
3.51397e+06
3.51397e+06
3.51397e+06
3.51396e+06
3.51396e+06
3.51396e+06
3.51396e+06
3.51396e+06
3.51396e+06
3.51396e+06
3.51396e+06
3.51395e+06
3.51395e+06
3.51395e+06
597143
597677
597701
597747
597764
597795
597801
597777
597777
597792
597796
597786
597786
597785
597788
597797
597799
597780
597784
597817
597825
597783
597788
597853
597867
597799
597805
597913
597940
597839
597846
598006
598048
597895
597906
598112
598131
597952
597891
598105
205246
202345
202313
202343
202335
202287
202268
202230
202183
202105
202081
202039
201979
201874
201844
201803
201731
201596
201563
201526
201443
201273
201235
201206
201111
200901
200861
200848
200745
200488
200444
200461
200353
200041
200005
200054
199948
199623
199522
199678
105451
104074
104029
103916
103829
103758
103728
103500
103320
103170
103122
102855
102629
102410
102347
102051
101778
101483
101406
101085
100758
100373
100281
99936.7
99550.2
99059.8
98952.6
98595.9
98144.9
97531
97408.2
97060.4
96550.6
95814.9
95693.6
95381.7
94887.3
94115.5
93925.6
93886.4
66584.6
66225.3
66203.8
66101.4
66028
65969.7
65953.6
65735.8
65545.5
65389.8
65348.6
65081.1
64833.6
64599.2
64538.2
64232
63928.6
63608.4
63527.9
63186
62818.1
62393
62290.4
61914
61470.3
60916.7
60790.2
60383.1
59849.6
59132.3
58977.9
58552.9
57918.9
57010.6
56841.8
56415.2
55733.2
54695.5
54436.7
54262.3
44590.8
44389.5
44371.3
44378.2
44350.4
44275.7
44275.4
44214.3
44090.9
43933.8
43908.4
43815.2
43644.9
43425.2
43381.1
43264.5
43051.8
42765.1
42702.5
42565.5
42308
41940.4
41856.9
41700
41389.7
40918.3
40810.9
40635.5
40261.4
39650.2
39512.6
39323.6
38867
38067.3
37906.4
37697.7
37160.5
36174.3
35902.1
35840
34648.5
34070.9
34031.4
34071.4
34079.7
34015
34017.2
34017.5
33940.9
33795
33769.2
33737.4
33615.3
33409.7
33363.2
33309.2
33148.6
32881.6
32815.2
32743.3
32545.5
32207.9
32120
32031.7
31788.3
31356
31242.1
31136.1
30834.7
30269.4
30121.2
29995
29606.7
28840.1
28656.8
28486.8
27968.7
26952.6
26637.7
26509.7
30138.5
29940.3
29924
29958.8
29996.2
29966.7
29975.2
29977
29927.4
29805.5
29780.5
29735.3
29633.3
29444.6
29395.1
29317.5
29173.1
28919.4
28847
28744.5
28562
28239.2
28143.4
28020.2
27788.7
27370
27244.4
27097.6
26801.7
26244.7
26078.8
25900.9
25500.4
24716.2
24500.7
24256.4
23669.8
22565.6
22196.8
21900.3
24647.7
24723.3
24739.2
24786.7
24837.7
24828.5
24843.4
24875.2
24860.9
24769.7
24750.9
24743.5
24682.7
24529.5
24485.4
24452.3
24355.8
24144.1
24076.9
24027.1
23902
23630.8
23541
23480.8
23320.4
22967.3
22848.8
22779.6
22575.5
22104.7
21947.3
21866.7
21585.3
20910.1
20700.2
20577
20131.5
19139.2
18770.7
18578.9
19735.2
19838.9
19867.1
19921.9
19969.8
19965.5
19982.4
20034.3
20042.6
19977.2
19964.9
19993.5
19967.5
19851.8
19816.2
19830.2
19778.5
19615.1
19558.2
19565
19494.1
19281.3
19203.6
19209.6
19117.8
18838.9
18735.4
18745.9
18631.2
18258.4
18120.5
18140.5
17983.1
17443.5
17256.7
17267.8
16998.9
16180.2
15842.5
15821.5
17013.8
16979.2
17004.8
17052.9
17100.3
17107.1
17125.1
17179.7
17204.6
17164
17157
17194.2
17191.4
17107
17078.2
17104
17080.5
16954.5
16905.8
16926.7
16888.1
16718.6
16650.3
16673
16620.2
16394.4
16302.5
16334.4
16269.1
15965
15842.5
15893.2
15804.4
15359.3
15191.5
15250.7
15079.4
14383.1
14072.1
14111.7
15201.4
15252.1
15289.4
15329
15378.8
15402.6
15424.7
15476.2
15515.4
15500.5
15500.6
15535.4
15550.5
15494.9
15474
15496.6
15493.1
15398.9
15358.8
15375.7
15358.9
15224.5
15165.2
15183.9
15156.2
14971.6
14890
14919.3
14884.8
14632.7
14523
14576.6
14530.6
14155.5
14003.3
14076.3
13964.3
13357.2
13066.9
13120
13118.8
13241.2
13294.6
13340.2
13389.3
13416.1
13440.6
13492.7
13537.2
13534.8
13540.9
13583.3
13611
13574.8
13561.9
13596.3
13610.7
13541.6
13511
13543.1
13548.6
13444.8
13396.4
13432.8
13433
13286.2
13217
13267.2
13267.3
13063
12968.2
13048
13050
12742.1
12608.5
12721.1
12684.8
12172.2
11908.9
12025
11317.2
11436.1
11494.2
11545.8
11592.1
11615.4
11639.6
11690.6
11733.6
11735.1
11744.4
11792.3
11825.1
11800.4
11793.9
11838.8
11863.5
11812.4
11790.8
11837.2
11857.6
11778
11740.7
11794.3
11814
11698.8
11643.3
11713
11738.2
11574.9
11496.6
11598.2
11634.8
11385.5
11273
11416.5
11440.2
11015.5
10785.2
10959.1
10213.2
10268.3
10323.8
10373.3
10418.2
10443.5
10467.1
10513.5
10556.6
10565.2
10576.9
10623.1
10660.5
10648.3
10646.8
10692
10724.5
10690.6
10676.2
10724.2
10754.9
10697
10668.9
10724.6
10757
10668.9
10625
10697
10737.4
10608.3
10544.5
10648.3
10705
10503.2
10409.5
10559.5
10617.4
10263.7
10063.6
10256.3
9337.56
9422.48
9482.75
9529.85
9575.08
9605.98
9630.7
9671.82
9716.23
9733.91
9748.79
9790.96
9833.1
9834.07
9837.98
9880.06
9919.81
9902.88
9895.76
9940.96
9981.05
9943.72
9924.9
9977.69
10021
9957.9
9925.3
9994.33
10047.5
9949.5
9899.49
10000.1
10072.8
9912.91
9836.93
9986.81
10069.7
9778.02
9606.11
9804.79
8373.39
8492.15
8560.06
8610.36
8656.11
8688.2
8714.1
8753.08
8796.06
8816.41
8833.67
8875.09
8918.37
8925.79
8934.14
8977.41
9020.97
9014.25
9013.52
9061.6
9108.27
9085.4
9075.03
9132.12
9184.7
9140.77
9118.83
9193.29
9258.77
9186.31
9149.73
9256.63
9346.07
9222.21
9163.66
9322.79
9433.74
9198.07
9054.47
9277.92
7476.89
7604.96
7675.97
7729.75
7775.35
7805.89
7832.26
7870.91
7911.22
7930.39
7948.87
7990.82
8032.97
8042.13
8053.44
8099.04
8143.41
8141.39
8145.33
8197.37
8247.02
8232.58
8228.9
8291.84
8350.13
8319.04
8306.05
8387.7
8461.95
8408
8383.16
8498.44
8600.85
8505.12
8462.25
8632.08
8767.24
8577.68
8460.64
8717.82
6732.41
6841
6906.38
6959.42
7002.75
7030.43
7055.79
7093.49
7130.52
7147.62
7165.96
7207.55
7247.33
7256.76
7269.54
7316.06
7359.27
7359.96
7366.94
7420.9
7470.58
7461.82
7463.09
7529.26
7589.46
7567.86
7562
7647.71
7725.81
7686.22
7671.19
7791.01
7900.04
7826.95
7797.73
7973.19
8123.81
7972.22
7879.39
8169.76
6238.41
6304.15
6359.79
6407.32
6447.85
6474.91
6498.73
6533.2
6568.46
6586.51
6604.26
6642.85
6681.78
6694.11
6707.65
6751.62
6794.92
6800.56
6809.65
6861.29
6911.85
6910.55
6915.5
6979.78
7041.98
7031
7030.72
7114.57
7195.61
7170.82
7163.77
7281.47
7394.81
7343.55
7325.82
7499.5
7659.4
7543.24
7471.38
7751.26
5799.03
5859.35
5908.21
5950.37
5988.57
6016.04
6039.22
6070.55
6104.64
6124.41
6142.29
6177.75
6216.28
6231.98
6246.77
6287.84
6331.63
6342.4
6353.91
6402.7
6454.44
6460.42
6469.18
6530.82
6595.31
6594.56
6599.89
6681.18
6765.49
6754.87
6755.78
6870.76
6988.77
6958.29
6952.03
7123.44
7291.92
7209.84
7158.57
7429.21
5315.42
5373.26
5417.06
5457.23
5493.38
5518.92
5541.73
5572.53
5604.54
5622.74
5640.7
5675.57
5712.16
5727.32
5743.09
5784.14
5826.64
5838.27
5851.81
5901.02
5951.9
5960.1
5971.97
6034.33
6098.86
6102.73
6112.87
6195.37
6280.95
6278.22
6286.12
6402.53
6523.48
6506.57
6510.67
6684.01
6860.44
6803.32
6771.03
7043.16
4902.13
4949.66
4986.9
5023.8
5056.93
5079.88
5101.38
5131.14
5160.77
5177.18
5194.45
5228.29
5262.45
5276.66
5292.51
5332.85
5373.21
5385.01
5399.52
5448.34
5497.21
5506.63
5520.37
5582.3
5645.01
5651.89
5665.27
5747.42
5831.58
5834.37
5847.33
5963.09
6083.13
6076.16
6088.16
6260.44
6438.95
6400.7
6383.95
6655.71
4615.97
4641.16
4671.49
4703.1
4733.14
4754.95
4774.79
4801.81
4829.91
4846.56
4862.91
4894.05
4926.99
4942.34
4957.89
4995.55
5035
5048.98
5063.9
5110
5158.1
5170.79
5185.68
5244.65
5306.73
5318.54
5334.15
5413.14
5496.77
5506.84
5523.55
5635.59
5755.16
5759.47
5777.62
5945.66
6124.97
6106.36
6102.42
6369.06
4343.99
4369.08
4394.87
4421.76
4449.07
4470.24
4489.01
4513.4
4540.21
4557.44
4573.39
4601.89
4633.81
4650.52
4666.23
4701.18
4739.93
4756.24
4772
4815.29
4862.91
4878.99
4895.41
4951.3
5013.06
5029.85
5048.08
5123.77
5207.34
5224.8
5245.69
5354.02
5473.8
5489.64
5514.48
5678.49
5859.22
5860.97
5870.38
6131.88
4037.78
4064.11
4086.85
4111.77
4136.81
4155.8
4173.75
4197.63
4222.68
4238.26
4253.9
4281.76
4311.67
4327.02
4342.84
4377.21
4413.96
4429.51
4445.96
4488.8
4534.55
4550.52
4568.25
4623.49
4683.2
4700.82
4721.29
4796.15
4877.8
4897.77
4922.36
5029.45
5147.56
5169.11
5200.08
5362.27
5542.84
5557.39
5579.23
5839.47
3773.87
3796.53
3815.84
3838.5
3861.1
3877.87
3894.5
3917.43
3940.67
3954.71
3969.58
3996.47
4024.32
4038.41
4053.77
4087.14
4121.7
4136.43
4152.87
4194.7
4238.15
4253.81
4271.98
4325.95
4382.95
4400.86
4422.4
4495.57
4574.11
4595.48
4622.2
4726.88
4841.31
4866.44
4901.32
5059.91
5236.86
5259.92
5290.84
5547.3
3586.36
3596.57
3612.33
3631.55
3651.88
3667.65
3682.8
3703.46
3725.42
3739.42
3753.35
3778
3804.71
3819.2
3833.89
3864.87
3898.32
3913.96
3930.05
3969.32
4011.62
4028.77
4046.92
4097.99
4153.6
4173.74
4195.72
4265.54
4342.34
4367.14
4395.06
4495.68
4607.8
4638.54
4675.97
4829.51
5003.64
5037.21
5074.95
5325.28
3400.93
3412.92
3426.57
3442.76
3461.07
3476.11
3490.2
3508.7
3529.46
3543.56
3556.94
3579.42
3605.04
3620.03
3634.42
3663.04
3695.44
3712.06
3728.17
3764.88
3806.14
3824.84
3843.4
3891.55
3945.92
3968.39
3991.26
4057.7
4133
4161.45
4191.11
4287.7
4397.96
4434.78
4475.48
4624.16
4796.13
4841.32
4886.75
5130.99
3190.23
3204.37
3216.73
3231.96
3248.61
3261.8
3275.04
3293.13
3312.45
3325.03
3337.95
3359.97
3383.84
3397.34
3411.46
3439.47
3469.87
3485.14
3501.26
3537.24
3576.33
3593.99
3612.91
3660.07
3711.87
3733.54
3757.18
3822.07
3894.33
3922.64
3953.86
4048.09
4154.73
4192.98
4236.73
4381.83
4549.85
4600.47
4653.17
4893.02
3008.02
3020.82
3031.57
3045.63
3060.69
3072.25
3084.41
3101.76
3119.68
3131.01
3143.19
3164.45
3186.69
3199.02
3212.52
3239.6
3268.09
3282.29
3297.96
3332.84
3369.74
3386.52
3405.2
3450.96
3500.08
3520.98
3544.6
3607.47
3676.32
3704.16
3735.79
3827.04
3929.2
3967.83
4012.89
4153.44
4315.61
4368.96
4426.14
4659.77
2876.4
2881.17
2890.05
2902.01
2915.66
2926.59
2937.62
2953.16
2970.07
2981.3
2992.64
3012.06
3033.36
3045.83
3058.58
3083.63
3111.1
3125.67
3140.67
3173.28
3209.03
3226.45
3244.59
3287.72
3335.36
3357.21
3380.38
3440.09
3506.91
3536.22
3567.63
3654.91
3754.17
3795.3
3840.67
3976
4133.93
4192.36
4252.21
4478.72
2742.59
2749.35
2757.28
2767.36
2779.71
2790.17
2800.38
2814.19
2830.11
2841.29
2852.07
2869.73
2890.06
2902.67
2914.99
2938.06
2964.47
2979.39
2994.06
3024.42
3058.98
3077.05
3095.01
3135.53
3181.68
3204.51
3227.67
3284.2
3349.04
3379.95
3411.68
3494.97
3591.5
3635.49
3681.89
3812.09
3966.14
4030.62
4094.09
4313.55
2589.75
2598.48
2605.93
2615.73
2627.02
2636.08
2645.62
2659.18
2673.96
2683.8
2694.14
2711.5
2730.42
2741.65
2753.59
2776.17
2800.83
2814.31
2828.69
2858.34
2890.8
2907.48
2925.31
2964.8
3008.42
3029.85
3053.01
3107.85
3169.45
3199.02
3231.07
3311.64
3403.91
3447.07
3494.5
3620.37
3768.81
3834.33
3901.33
4114.5
2457.33
2465.48
2472.12
2481.43
2491.74
2499.67
2508.44
2521.5
2535.22
2544.05
2553.78
2570.55
2588.24
2598.46
2609.8
2631.62
2654.72
2667.16
2680.97
2709.62
2740.2
2755.82
2773.11
2811.28
2852.54
2872.85
2895.48
2948.38
3006.82
3035.18
3066.74
3144.33
3232.17
3274.17
3321.36
3442.49
3584.49
3649.53
3717.9
3923.73
2360.64
2363.01
2368.54
2376.48
2385.95
2393.59
2401.57
2413.2
2426.19
2434.94
2443.97
2459.23
2476.2
2486.48
2497.13
2517.25
2539.51
2552.09
2565.19
2591.88
2621.43
2637.3
2653.84
2689.71
2729.63
2750.28
2772.08
2822.16
2878.68
2907.52
2938.16
3012.11
3097.06
3139.85
3186.08
3302.21
3439.62
3506.5
3574.86
3773.24
2260.2
2264.37
2269.45
2276.17
2284.82
2292.23
2299.62
2309.92
2322.13
2330.8
2339.35
2353.18
2369.36
2379.66
2389.87
2408.34
2429.67
2442.35
2455
2479.77
2508.19
2524.24
2540.36
2573.94
2612.39
2633.36
2654.73
2701.97
2756.47
2785.83
2816.05
2886.31
2968.32
3012.13
3058.06
3169.18
3302.07
3371.51
3440.74
3631.69
2145.01
2150.88
2155.79
2162.54
2170.54
2176.86
2183.77
2194.02
2205.35
2212.92
2221.09
2234.78
2249.8
2258.92
2268.73
2286.89
2306.78
2318.14
2330.39
2354.58
2381.16
2395.77
2411.51
2444.17
2480.34
2499.74
2520.75
2566.43
2617.9
2645.49
2675.38
2742.98
2820.77
2862.71
2908.47
3015.14
3141.96
3209.96
3280.19
3464.05
2045.07
2050.75
2055.19
2061.72
2069.1
2074.65
2081.02
2090.97
2101.52
2108.33
2116
2129.29
2143.35
2151.64
2160.94
2178.52
2197.21
2207.67
2219.33
2242.7
2267.73
2281.31
2296.43
2327.94
2362.11
2380.36
2400.65
2444.62
2493.35
2519.52
2548.54
2613.44
2687.23
2727.39
2772.11
2874.28
2994.91
3060.79
3130.45
3306.76
1971.64
1972.88
1976.57
1982.11
1988.97
1994.46
2000.28
2009.1
2019.14
2025.94
2033.05
2045.1
2058.62
2066.96
2075.67
2091.84
2109.89
2120.42
2131.42
2153.12
2177.32
2190.96
2205.31
2234.84
2267.87
2286.17
2305.54
2347.07
2394.15
2420.32
2448.17
2509.86
2581.06
2621.14
2664.3
2761.93
2878.17
2944.06
3012.13
3181.2
1893.99
1896.81
1900.28
1904.93
1911.25
1916.67
1922.1
1929.87
1939.33
1946.1
1952.83
1963.71
1976.6
1984.93
1993.26
2008.06
2025.33
2035.87
2046.43
2066.51
2089.72
2103.35
2117.19
2144.76
2176.48
2194.77
2213.55
2252.63
2297.85
2324.01
2351.12
2409.55
2477.95
2518.06
2560.25
2653.28
2765.01
2831.36
2898.64
3060.47
1804.66
1808.88
1812.32
1817.2
1823.08
1827.64
1832.74
1840.6
1849.38
1855.24
1861.66
1872.53
1884.5
1891.83
1899.81
1914.43
1930.48
1939.87
1950.06
1969.72
1991.38
2003.7
2017.1
2043.91
2073.65
2090.44
2108.71
2146.45
2188.99
2213.34
2239.82
2295.87
2360.43
2398.31
2439.71
2528.57
2634.46
2698.18
2764.91
2919.63
1727.08
1731.23
1734.39
1739.21
1744.7
1748.7
1753.43
1761.13
1769.35
1774.61
1780.64
1791.26
1802.49
1809.16
1816.7
1830.9
1845.99
1854.62
1864.32
1883.34
1903.75
1915.19
1927.98
1953.85
1981.95
1997.66
2015.2
2051.5
2091.77
2114.74
2140.24
2193.95
2255.09
2291.08
2331.1
2415.96
2516.31
2577.25
2642.34
2789.93
1669.9
1670.47
1673.06
1677.11
1682.28
1686.33
1690.67
1697.46
1705.33
1710.67
1716.26
1725.85
1736.7
1743.44
1750.49
1763.5
1778.11
1786.8
1795.92
1813.55
1833.31
1844.77
1856.83
1881.02
1908.21
1923.87
1940.51
1974.76
2013.66
2036.44
2060.74
2111.74
2170.68
2206.19
2244.47
2325.38
2421.86
2481.86
2544.58
2685.53
1608.48
1610.44
1612.92
1616.28
1621.07
1625.14
1629.22
1635.17
1642.61
1647.96
1653.26
1661.89
1672.24
1678.99
1685.72
1697.62
1711.59
1720.26
1729
1745.27
1764.2
1775.58
1787.17
1809.7
1835.75
1851.28
1867.32
1899.5
1936.78
1959.32
1982.79
2030.99
2087.46
2122.52
2159.57
2236.44
2328.8
2388.15
2449.21
2583.53
1537.61
1540.75
1543.28
1546.92
1551.4
1554.78
1558.62
1564.76
1571.68
1576.25
1581.3
1590.03
1599.66
1605.54
1612.01
1623.87
1636.87
1644.53
1652.94
1668.96
1686.59
1696.81
1707.98
1729.94
1754.32
1768.51
1784.02
1815.08
1850.08
1870.93
1893.69
1939.85
1992.97
2025.84
2061.84
2135.01
2222.12
2278.46
2338.16
2465.87
1476.02
1479.16
1481.48
1485.17
1489.37
1492.33
1495.91
1501.99
1508.5
1512.59
1517.35
1525.94
1535
1540.36
1546.49
1558.06
1570.33
1577.36
1585.34
1600.9
1617.53
1626.99
1637.65
1658.86
1681.92
1695.2
1710.04
1739.92
1773.05
1792.68
1814.5
1858.71
1908.98
1940.06
1974.65
2044.39
2126.76
2180.25
2237.89
2359.22
1430.61
1430.76
1432.62
1435.67
1439.66
1442.75
1446.04
1451.37
1457.66
1461.86
1466.28
1474.02
1482.81
1488.27
1494
1504.58
1516.5
1523.61
1531.09
1545.48
1561.63
1571.09
1581.11
1600.95
1623.3
1636.51
1650.55
1678.72
1710.77
1730.15
1750.85
1792.8
1841.3
1871.76
1904.64
1971.08
2050.19
2102.35
2157.39
2272.95
1381.11
1382.52
1384.31
1386.81
1390.51
1393.69
1396.8
1401.45
1407.41
1411.67
1415.88
1422.82
1431.21
1436.71
1442.19
1451.83
1463.25
1470.35
1477.52
1490.77
1506.23
1515.62
1525.22
1543.7
1565.12
1578.15
1591.65
1618.09
1648.78
1667.83
1687.74
1727.36
1773.74
1803.58
1835.21
1898.22
1973.77
2024.77
2077.85
2187.62
1323.86
1326.26
1328.14
1330.96
1334.45
1337.03
1339.99
1344.88
1350.43
1354.05
1358.08
1365.17
1372.99
1377.77
1383.02
1392.71
1403.35
1409.6
1416.49
1429.61
1444.03
1452.44
1461.69
1479.74
1499.78
1511.62
1524.63
1550.19
1578.95
1596.51
1615.73
1653.64
1697.16
1725.02
1755.57
1815.41
1886.43
1934.52
1985.92
2089.88
1274.07
1276.49
1278.25
1281.15
1284.46
1286.7
1289.48
1294.39
1299.63
1302.87
1306.7
1313.7
1321.11
1325.45
1330.44
1339.94
1350
1355.75
1362.3
1375.08
1388.73
1396.53
1405.36
1422.85
1441.81
1452.9
1465.33
1489.94
1517.2
1533.71
1552.1
1588.4
1629.6
1655.88
1685.13
1742.12
1809.18
1854.65
1903.95
2002.45
1237.44
1237.3
1238.65
1241.01
1244.2
1246.6
1249.17
1253.46
1258.55
1261.95
1265.51
1271.8
1279.02
1283.49
1288.15
1296.82
1306.64
1312.46
1318.61
1330.41
1343.7
1351.54
1359.84
1376.2
1394.64
1405.67
1417.39
1440.63
1467.06
1483.31
1500.72
1535.18
1574.99
1600.64
1628.35
1682.62
1747.07
1791.12
1837.91
1931.57
1196.95
1197.95
1199.29
1201.18
1204.16
1206.68
1209.14
1212.85
1217.7
1221.2
1224.6
1230.22
1237.13
1241.66
1246.13
1254.02
1263.42
1269.25
1275.15
1286.02
1298.76
1306.55
1314.51
1329.75
1347.42
1358.3
1369.56
1391.38
1416.68
1432.61
1449.31
1481.86
1519.91
1544.92
1571.48
1622.93
1684.38
1727.14
1771.99
1860.8
1150.01
1151.89
1153.34
1155.58
1158.38
1160.43
1162.79
1166.78
1171.33
1174.26
1177.53
1183.35
1189.81
1193.71
1198.01
1206.01
1214.77
1219.9
1225.56
1236.4
1248.31
1255.29
1262.97
1277.89
1294.41
1304.29
1315.14
1336.23
1359.92
1374.6
1390.67
1421.81
1457.47
1480.77
1506.33
1555.11
1612.76
1652.92
1696.09
1779.96
1109.16
1111.1
1112.47
1114.82
1117.52
1119.3
1121.54
1125.61
1129.95
1132.56
1135.67
1141.49
1147.61
1151.15
1155.26
1163.14
1171.46
1176.18
1181.58
1192.19
1203.51
1209.99
1217.34
1231.82
1247.52
1256.75
1267.14
1287.47
1309.96
1323.76
1339.14
1368.99
1402.76
1424.73
1449.15
1495.6
1550.01
1587.9
1629.14
1708.47
1079.24
1078.94
1079.96
1081.86
1084.49
1086.47
1088.56
1092.11
1096.37
1099.15
1102.05
1107.26
1113.26
1116.95
1120.79
1127.96
1136.11
1140.94
1146
1155.79
1166.89
1173.44
1180.35
1193.9
1209.24
1218.44
1228.23
1247.44
1269.32
1282.91
1297.43
1325.82
1358.53
1379.92
1403
1447.28
1499.64
1536.21
1575.19
1650.59
1045.71
1046.45
1047.52
1049.03
1051.52
1053.67
1055.71
1058.78
1062.84
1065.76
1068.56
1073.2
1078.94
1082.71
1086.41
1092.92
1100.74
1105.6
1110.47
1119.5
1130.15
1136.68
1143.34
1155.98
1170.68
1179.77
1189.18
1207.24
1228.2
1241.5
1255.44
1282.28
1313.57
1334.36
1356.45
1398.46
1448.39
1483.72
1520.96
1592.43
1006.72
1008.26
1009.53
1011.43
1013.83
1015.59
1017.6
1020.96
1024.78
1027.23
1029.96
1034.81
1040.18
1043.41
1046.99
1053.65
1060.94
1065.22
1069.94
1078.99
1088.93
1094.77
1101.21
1113.64
1127.39
1135.65
1144.74
1162.23
1181.84
1194.1
1207.54
1233.2
1262.51
1281.9
1303.14
1342.95
1389.74
1422.9
1458.63
1526.03
972.772
974.428
975.7
977.799
980.134
981.701
983.673
987.124
990.768
992.976
995.618
1000.49
1005.59
1008.52
1011.97
1018.57
1025.51
1029.47
1034.02
1042.9
1052.37
1057.82
1064.01
1076.11
1089.2
1096.96
1105.68
1122.59
1141.24
1152.8
1165.68
1190.32
1218.12
1236.43
1256.76
1294.7
1338.89
1370.17
1404.28
1468.04
948.054
947.783
948.824
950.551
952.873
954.693
956.568
959.545
963.13
965.554
968.036
972.349
977.37
980.484
983.719
989.695
996.533
1000.65
1004.94
1013.14
1022.46
1028.01
1033.86
1045.18
1058.03
1065.8
1074.04
1090.05
1108.27
1119.69
1131.88
1155.36
1182.39
1200.24
1219.45
1255.71
1298.37
1328.54
1360.74
1421.47
919.906
920.803
922.07
923.453
925.663
927.749
929.643
932.129
935.529
938.154
940.612
944.354
949.141
952.419
955.591
960.937
967.492
971.735
975.933
983.422
992.378
998
1003.69
1014.19
1026.53
1034.29
1042.28
1057.31
1074.8
1086.05
1097.81
1120.05
1145.97
1163.38
1181.83
1216.35
1257.13
1286.31
1317.11
1374.95
887.013
889.078
890.782
892.454
894.606
896.512
898.44
901.041
904.234
906.589
909.041
912.832
917.316
920.293
923.429
928.749
934.893
938.781
942.916
950.267
958.649
963.85
969.415
979.623
991.175
998.403
1006.2
1020.67
1037.08
1047.65
1059.06
1080.33
1104.69
1121.15
1139
1171.81
1210.18
1237.85
1267.52
1322.6
854.47
857.022
858.986
861.156
863.305
864.829
866.745
869.706
872.737
874.65
877.047
881.144
885.366
887.868
890.931
896.471
902.217
905.572
909.597
917.051
924.869
929.47
934.885
945.014
955.799
962.315
969.869
983.979
999.305
1008.99
1020.03
1040.47
1063.21
1078.48
1095.7
1126.89
1162.69
1188.55
1217.09
1269.87
826.774
829.098
830.948
833.276
835.395
836.729
838.578
841.65
844.585
846.287
848.596
852.76
856.815
859.102
862.057
867.59
873.097
876.196
880.075
887.437
894.905
899.198
904.419
914.33
924.623
930.748
938.017
951.7
966.301
975.437
986.048
1005.72
1027.28
1041.69
1058.19
1087.97
1121.74
1146.07
1173.34
1224.72
807.086
807.413
808.82
810.705
812.787
814.32
816.029
818.675
821.604
823.504
825.647
829.349
833.404
835.874
838.638
843.67
849.162
852.419
856.058
862.875
870.292
874.692
879.599
888.912
899.086
905.236
912.088
925.076
939.426
948.449
958.461
977.271
998.321
1012.33
1027.89
1056.41
1089.08
1112.46
1138.14
1186.24
784.479
785.447
786.766
788.24
790.156
791.814
793.481
795.739
798.519
800.547
802.641
805.922
809.808
812.384
815.078
819.651
824.929
828.26
831.8
838.097
845.233
849.651
854.412
863.121
872.907
879.004
885.626
897.89
911.675
920.515
930.155
948.029
968.22
981.816
996.719
1023.9
1055.14
1077.61
1102.11
1147.31
758.12
759.459
760.777
762.501
764.285
765.534
767.144
769.686
772.291
773.914
775.955
779.477
783.095
785.243
787.87
792.622
797.533
800.4
803.842
810.214
816.87
820.779
825.404
834.023
843.157
848.677
855.092
867.023
879.903
888.041
897.359
914.486
933.362
946.048
960.403
986.177
1015.4
1036.5
1059.97
1102.27
735.284
736.571
737.721
739.497
741.177
742.198
743.717
746.349
748.846
750.26
752.218
755.793
759.253
761.184
763.721
768.474
773.168
775.803
779.127
785.424
791.788
795.439
799.899
808.336
817.061
822.253
828.439
840.017
852.292
859.99
868.96
885.442
903.366
915.366
929.131
953.736
981.345
1001.26
1023.65
1063.43
719.162
718.787
719.533
720.878
722.506
723.678
725.036
727.276
729.763
731.348
733.141
736.305
739.769
741.861
744.21
748.527
753.223
755.995
759.094
764.93
771.274
775.019
779.196
787.135
795.795
801.012
806.821
817.839
829.959
837.566
846.01
861.799
879.373
891.051
904.009
927.613
954.455
973.604
994.64
1032.48
700.163
700.576
701.332
702.297
703.754
705.034
706.343
708.199
710.531
712.232
713.979
716.751
720.05
722.24
724.531
728.427
732.927
735.77
738.791
744.167
750.261
754.034
758.093
765.516
773.842
779.025
784.647
795.056
806.714
814.18
822.324
837.35
854.236
865.585
878.02
900.562
926.317
944.744
964.81
1000.94
677.818
678.716
679.577
680.807
682.128
683.027
684.27
686.343
688.497
689.818
691.51
694.483
697.539
699.335
701.56
705.61
709.789
712.219
715.159
720.588
726.255
729.592
733.54
740.878
748.637
753.337
758.801
768.903
779.777
786.671
794.556
808.94
824.718
835.346
847.342
868.747
892.93
910.206
929.444
963.868
658.415
659.358
660.143
661.486
662.733
663.419
664.575
666.733
668.784
669.9
671.512
674.542
677.462
679.055
681.192
685.255
689.254
691.472
694.305
699.686
705.104
708.207
712.021
719.216
726.632
731.055
736.332
746.15
756.513
763.035
770.634
784.487
799.475
809.541
821.069
841.479
864.325
880.691
899.079
931.458
644.94
644.398
644.831
645.828
647.07
647.91
648.92
650.734
652.797
654.063
655.515
658.188
661.129
662.862
664.819
668.508
672.53
674.87
677.485
682.478
687.909
691.092
694.642
701.43
708.829
713.276
718.211
727.58
737.857
744.296
751.429
764.729
779.488
789.286
800.119
819.731
841.902
857.752
875.023
905.465
628.75
629.008
629.513
630.2
631.31
632.283
633.27
634.738
636.658
638.034
639.451
641.765
644.553
646.379
648.29
651.6
655.442
657.856
660.409
664.994
670.205
673.419
676.876
683.217
690.334
694.762
699.548
708.411
718.302
724.631
731.522
744.202
758.408
767.945
778.362
797.232
818.499
833.749
850.242
879.253
609.637
610.368
611.036
611.995
613.017
613.673
614.62
616.293
618.044
619.079
620.445
622.927
625.492
626.969
628.822
632.25
635.798
637.844
640.334
644.959
649.787
652.622
655.986
662.238
668.847
672.861
677.52
686.106
695.323
701.178
707.869
719.996
733.257
742.214
752.29
770.451
790.563
804.618
820.395
848.52
593.039
593.822
594.446
595.544
596.533
597.003
597.899
599.677
601.344
602.196
603.494
606.042
608.486
609.775
611.552
615.005
618.394
620.243
622.638
627.237
631.849
634.476
637.722
643.865
650.174
653.938
658.444
666.794
675.581
681.117
687.578
699.28
711.88
720.362
730.052
747.264
766.261
779.664
794.791
821.27
581.752
581.156
581.433
582.234
583.247
583.872
584.641
586.136
587.837
588.831
589.979
592.223
594.71
596.125
597.726
600.865
604.3
606.253
608.437
612.717
617.37
620.067
623.06
628.872
635.2
638.978
643.164
651.155
659.914
665.38
671.415
682.695
695.178
703.423
712.487
728.713
747.129
760.413
774.669
799.303
567.905
568.092
568.467
568.995
569.894
570.663
571.436
572.628
574.204
575.313
576.449
578.372
580.719
582.227
583.8
586.603
589.872
591.895
594.03
597.952
602.41
605.142
608.061
613.49
619.576
623.337
627.403
634.97
643.409
648.789
654.629
665.443
677.521
685.525
694.237
709.77
727.392
740.275
753.961
777.419
551.497
552.123
552.682
553.471
554.304
554.806
555.561
556.94
558.383
559.203
560.308
562.378
564.523
565.73
567.262
570.155
573.154
574.864
576.95
580.88
584.991
587.393
590.245
595.57
601.204
604.617
608.585
615.886
623.725
628.714
634.396
644.84
656.192
663.585
671.995
687.256
703.976
715.549
728.6
751.741
537.245
537.915
538.44
539.376
540.194
540.532
541.248
542.746
544.132
544.787
545.842
547.992
550.041
551.08
552.548
555.475
558.34
559.874
561.885
565.799
569.72
571.93
574.689
579.926
585.294
588.491
592.331
599.435
606.892
611.602
617.095
627.079
637.823
644.899
653.024
667.48
683.257
694.298
706.818
728.616
527.809
527.188
527.351
528.018
528.879
529.362
529.954
531.218
532.663
533.448
534.357
536.259
538.372
539.524
540.822
543.491
546.424
548.045
549.854
553.508
557.495
559.759
562.275
567.248
572.667
575.869
579.407
586.227
593.7
598.339
603.435
612.911
623.464
630.54
638.16
651.6
666.898
678.05
689.864
709.922
515.962
516.099
516.378
516.797
517.549
518.177
518.791
519.781
521.109
522.013
522.928
524.546
526.529
527.78
529.064
531.44
534.223
535.912
537.689
541.036
544.847
547.147
549.605
554.253
559.458
562.652
566.092
572.563
579.778
584.34
589.274
598.359
608.491
615.405
622.768
635.608
650.232
661.119
672.511
691.591
501.854
502.398
502.875
503.539
504.233
504.632
505.247
506.398
507.605
508.269
509.175
510.912
512.72
513.715
514.983
517.426
519.967
521.392
523.141
526.478
529.978
532.002
534.408
538.942
543.742
546.64
550.006
556.243
562.957
567.166
571.973
580.912
590.501
596.67
603.737
616.589
630.53
640.094
650.919
670.019
489.601
490.178
490.626
491.436
492.124
492.37
492.951
494.229
495.397
495.911
496.78
498.607
500.338
501.178
502.403
504.894
507.322
508.588
510.279
513.613
516.947
518.8
521.131
525.591
530.159
532.86
536.122
542.17
548.544
552.52
557.175
565.685
574.747
580.648
587.473
599.632
612.775
621.896
632.288
650.276
481.751
481.119
481.188
481.751
482.493
482.867
483.322
484.401
485.648
486.279
487.003
488.627
490.442
491.381
492.435
494.722
497.239
498.58
500.074
503.2
506.621
508.517
510.611
514.859
519.503
522.204
525.176
530.983
537.363
541.315
545.603
553.53
562.426
568.456
574.855
586.013
598.757
608.124
617.932
634.328
471.634
471.739
471.946
472.28
472.917
473.427
473.914
474.744
475.879
476.627
477.368
478.741
480.434
481.466
482.523
484.551
486.934
488.342
489.82
492.685
495.947
497.878
499.933
503.906
508.365
511.06
513.957
519.507
525.648
529.534
533.687
541.253
549.771
555.692
561.898
572.542
584.707
593.908
603.423
619.004
459.525
460.002
460.42
460.975
461.56
461.882
462.382
463.345
464.363
464.907
465.655
467.123
468.655
469.474
470.53
472.602
474.77
475.96
477.423
480.264
483.247
484.952
486.98
490.838
494.933
497.388
500.235
505.654
511.408
514.898
518.927
526.52
534.616
539.753
545.669
556.469
568.111
576.122
585.173
600.881
449.007
449.494
449.879
450.585
451.166
451.343
451.819
452.91
453.897
454.298
455.018
456.58
458.051
458.733
459.753
461.879
463.947
464.995
466.415
469.261
472.102
473.656
475.627
479.432
483.318
485.599
488.363
493.571
499.005
502.324
506.244
513.464
521.093
526.003
531.718
541.917
552.859
560.444
569.095
583.929
442.529
441.896
441.878
442.355
443.004
443.289
443.63
444.556
445.636
446.137
446.706
448.102
449.675
450.441
451.291
453.25
455.423
456.534
457.758
460.438
463.384
464.972
466.712
470.35
474.34
476.617
479.096
483.983
489.415
492.806
496.414
503.05
510.543
515.653
521
530.26
540.866
548.669
556.766
570.24
433.917
434.004
434.145
434.412
434.953
435.369
435.753
436.451
437.42
438.031
438.627
439.799
441.254
442.108
442.975
444.708
446.754
447.928
449.151
451.608
454.412
456.033
457.749
461.165
465
467.274
469.698
474.346
479.547
482.897
486.412
492.74
499.898
504.94
510.153
518.984
529.089
536.768
544.651
557.452
423.492
423.906
424.268
424.736
425.227
425.49
425.902
426.709
427.571
428.017
428.634
429.875
431.182
431.865
432.747
434.51
436.359
437.359
438.586
441.009
443.562
445.002
446.712
450.041
453.576
455.626
458.02
462.668
467.57
470.474
473.858
480.311
487.15
491.433
496.398
505.445
515.15
521.863
529.382
542.281
414.384
414.788
415.119
415.736
416.233
416.358
416.751
417.691
418.532
418.848
419.447
420.787
422.045
422.601
423.459
425.287
427.052
427.923
429.124
431.564
433.99
435.294
436.967
440.232
443.58
445.489
447.827
452.291
456.911
459.671
462.968
469.095
475.522
479.609
484.388
492.937
502.035
508.351
515.531
527.717
409.035
408.406
408.314
408.715
409.292
409.509
409.759
410.562
411.514
411.917
412.361
413.564
414.941
415.571