/*--------------------------------*- C++ -*----------------------------------*\
| =========                 |                                                 |
| \\      /  F ield         | OpenFOAM: The Open Source CFD Toolbox           |
|  \\    /   O peration     | Version:  2506                                  |
|   \\  /    A nd           | Website:  www.openfoam.com                      |
|    \\/     M anipulation  |                                                 |
\*---------------------------------------------------------------------------*/
FoamFile
{
    version     2.0;
    format      ascii;
    arch        "LSB;label=32;scalar=64";
    class       volScalarField;
    location    "1000";
    object      R;
}
// * * * * * * * * * * * * * * * * * * * * * * * * * * * * * * * * * * * * * //

dimensions      [0 2 -3 0 0 0 0];

internalField   nonuniform List<scalar> 
72100
(
2.03263e-05
1.48939e-05
1.47768e-05
1.84888e-05
1.77943e-05
1.34997e-05
1.34637e-05
1.65419e-05
1.57308e-05
1.1816e-05
1.18479e-05
1.44464e-05
1.35599e-05
1.00635e-05
1.01253e-05
1.22326e-05
1.13131e-05
8.25929e-06
8.31963e-06
9.92142e-06
8.99845e-06
6.40749e-06
6.44415e-06
7.53021e-06
6.63512e-06
4.53785e-06
4.54091e-06
5.12203e-06
4.28559e-06
2.70746e-06
2.68018e-06
2.80635e-06
2.06907e-06
1.06538e-06
1.02398e-06
7.87883e-07
2.98284e-07
-1.94737e-07
-2.23804e-07
-4.61037e-07
-1.22625e-05
-1.03621e-05
-1.02725e-05
-1.10988e-05
-1.08152e-05
-9.53916e-06
-9.49489e-06
-1.0255e-05
-9.95626e-06
-8.75679e-06
-8.73798e-06
-9.38313e-06
-9.05876e-06
-7.93355e-06
-7.92858e-06
-8.45007e-06
-8.103e-06
-7.05579e-06
-7.055e-06
-7.44552e-06
-7.07432e-06
-6.10659e-06
-6.10218e-06
-6.35631e-06
-5.9685e-06
-5.0904e-06
-5.07735e-06
-5.19218e-06
-4.78602e-06
-4.004e-06
-3.98015e-06
-3.95965e-06
-3.54589e-06
-2.87733e-06
-2.84463e-06
-2.71345e-06
-2.31978e-06
-1.79579e-06
-1.76051e-06
-1.56848e-06
1.41788e-06
1.75916e-06
1.71368e-06
1.4711e-06
1.47097e-06
1.64253e-06
1.60496e-06
1.39985e-06
1.40626e-06
1.55843e-06
1.51863e-06
1.33064e-06
1.33778e-06
1.46684e-06
1.4264e-06
1.25514e-06
1.25884e-06
1.36259e-06
1.32316e-06
1.16874e-06
1.16469e-06
1.24031e-06
1.20307e-06
1.06588e-06
1.05124e-06
1.09694e-06
1.06289e-06
9.41942e-07
9.12245e-07
9.25649e-07
8.95236e-07
7.88012e-07
7.41028e-07
7.21021e-07
6.94732e-07
5.9913e-07
5.3278e-07
4.88632e-07
4.67012e-07
3.77104e-07
1.47842e-06
2.45074e-06
2.35993e-06
1.80309e-06
1.80838e-06
2.25502e-06
2.17007e-06
1.64396e-06
1.66199e-06
2.07081e-06
1.97841e-06
1.48454e-06
1.50711e-06
1.87514e-06
1.77937e-06
1.32199e-06
1.34317e-06
1.66695e-06
1.57199e-06
1.15678e-06
1.17069e-06
1.44516e-06
1.35475e-06
9.89263e-07
9.92129e-07
1.21293e-06
1.13091e-06
8.2211e-07
8.10639e-07
9.72232e-07
9.01251e-07
6.56404e-07
6.2939e-07
7.28714e-07
6.71853e-07
4.92732e-07
4.52322e-07
4.91077e-07
4.49849e-07
3.29766e-07
3.61019e-06
4.28343e-06
4.17825e-06
3.70397e-06
3.65946e-06
3.95327e-06
3.85536e-06
3.38696e-06
3.34777e-06
3.62285e-06
3.51898e-06
3.04931e-06
3.00884e-06
3.26261e-06
3.15275e-06
2.68627e-06
2.64014e-06
2.87051e-06
2.75689e-06
2.29918e-06
2.24192e-06
2.44418e-06
2.32869e-06
1.89027e-06
1.82033e-06
1.99087e-06
1.8771e-06
1.47118e-06
1.38726e-06
1.51964e-06
1.41157e-06
1.06012e-06
9.69527e-07
1.06025e-06
9.64923e-07
6.96058e-07
6.16568e-07
6.65319e-07
5.9027e-07
4.30767e-07
-2.43201e-05
-2.46534e-05
-2.43664e-05
-2.32709e-05
-2.29777e-05
-2.32484e-05
-2.29865e-05
-2.19515e-05
-2.17205e-05
-2.19544e-05
-2.16956e-05
-2.06479e-05
-2.0423e-05
-2.05942e-05
-2.03435e-05
-1.92683e-05
-1.90187e-05
-1.91123e-05
-1.88732e-05
-1.77659e-05
-1.74521e-05
-1.74423e-05
-1.7219e-05
-1.60815e-05
-1.56804e-05
-1.55459e-05
-1.53379e-05
-1.41677e-05
-1.36268e-05
-1.33282e-05
-1.31335e-05
-1.19253e-05
-1.121e-05
-1.06985e-05
-1.0508e-05
-9.28178e-06
-8.34817e-06
-7.63049e-06
-7.442e-06
-6.17542e-06
1.26206e-05
1.29844e-05
1.28354e-05
1.23653e-05
1.22123e-05
1.23532e-05
1.22023e-05
1.17657e-05
1.1696e-05
1.18624e-05
1.17162e-05
1.12815e-05
1.124e-05
1.14022e-05
1.12492e-05
1.08021e-05
1.07661e-05
1.09121e-05
1.07482e-05
1.02834e-05
1.0229e-05
1.03419e-05
1.01629e-05
9.67751e-06
9.58301e-06
9.64615e-06
9.452e-06
8.93743e-06
8.76431e-06
8.74236e-06
8.531e-06
7.97409e-06
7.67843e-06
7.51824e-06
7.29335e-06
6.67466e-06
6.19771e-06
5.85343e-06
5.61535e-06
4.8861e-06
4.43122e-06
3.87095e-06
3.83334e-06
3.98198e-06
3.88662e-06
3.63621e-06
3.6099e-06
3.78189e-06
3.70312e-06
3.46099e-06
3.44123e-06
3.61441e-06
3.54185e-06
3.29957e-06
3.27228e-06
3.44893e-06
3.37989e-06
3.1355e-06
3.09425e-06
3.28079e-06
3.2229e-06
2.98139e-06
2.91886e-06
3.11968e-06
3.06156e-06
2.81612e-06
2.72986e-06
2.93921e-06
2.87732e-06
2.62506e-06
2.51264e-06
2.71996e-06
2.64217e-06
2.3865e-06
2.25835e-06
2.42406e-06
2.31689e-06
2.07488e-06
1.92805e-06
1.95703e-06
4.94419e-06
4.35554e-06
4.29521e-06
4.31725e-06
4.20815e-06
4.05298e-06
4.02417e-06
4.10322e-06
4.00802e-06
3.85037e-06
3.83648e-06
3.92014e-06
3.82181e-06
3.64469e-06
3.62843e-06
3.72564e-06
3.6204e-06
3.41852e-06
3.39309e-06
3.51704e-06
3.41372e-06
3.19789e-06
3.15588e-06
3.30718e-06
3.19263e-06
2.95939e-06
2.89458e-06
3.07791e-06
2.95862e-06
2.70031e-06
2.60624e-06
2.81283e-06
2.6688e-06
2.38197e-06
2.26483e-06
2.45716e-06
2.27315e-06
1.97864e-06
1.84086e-06
1.96096e-06
-2.27608e-05
-2.33068e-05
-2.30994e-05
-2.2431e-05
-2.22356e-05
-2.23854e-05
-2.21595e-05
-2.14385e-05
-2.13844e-05
-2.16122e-05
-2.1384e-05
-2.06522e-05
-2.06574e-05
-2.09186e-05
-2.06995e-05
-1.9908e-05
-1.9935e-05
-2.02167e-05
-2.00149e-05
-1.91427e-05
-1.91596e-05
-1.9458e-05
-1.92807e-05
-1.83022e-05
-1.82775e-05
-1.85818e-05
-1.843e-05
-1.73194e-05
-1.7199e-05
-1.74868e-05
-1.73673e-05
-1.60844e-05
-1.58078e-05
-1.60251e-05
-1.59276e-05
-1.44415e-05
-1.3862e-05
-1.38828e-05
-1.38129e-05
-1.19376e-05
7.74765e-06
7.63881e-06
7.5265e-06
7.507e-06
7.42637e-06
7.35956e-06
7.26237e-06
7.25011e-06
7.26392e-06
7.2665e-06
7.2071e-06
7.25098e-06
7.33395e-06
7.37114e-06
7.31919e-06
7.40139e-06
7.529e-06
7.58582e-06
7.52771e-06
7.64917e-06
7.81624e-06
7.889e-06
7.81274e-06
7.97426e-06
8.1523e-06
8.23236e-06
8.13514e-06
8.34214e-06
8.52401e-06
8.60483e-06
8.47519e-06
8.71304e-06
8.84519e-06
8.8948e-06
8.73223e-06
8.926e-06
8.9241e-06
8.85793e-06
8.64484e-06
8.64572e-06
2.33422e-06
2.02119e-06
1.95547e-06
1.96695e-06
1.9265e-06
1.81447e-06
1.77387e-06
1.86467e-06
1.8196e-06
1.66696e-06
1.64353e-06
1.7518e-06
1.70318e-06
1.50927e-06
1.47738e-06
1.62483e-06
1.57276e-06
1.33426e-06
1.28275e-06
1.48134e-06
1.42315e-06
1.1266e-06
1.04634e-06
1.31422e-06
1.25212e-06
8.9462e-07
7.77824e-07
1.142e-06
1.08548e-06
6.50093e-07
4.92023e-07
9.8801e-07
9.34689e-07
4.12348e-07
2.1296e-07
8.36032e-07
8.06427e-07
2.3538e-07
-4.81293e-08
7.78225e-07
4.27123e-06
3.88562e-06
3.77246e-06
3.70331e-06
3.62623e-06
3.52273e-06
3.46546e-06
3.51379e-06
3.4561e-06
3.3372e-06
3.31077e-06
3.38273e-06
3.33043e-06
3.17882e-06
3.1583e-06
3.26392e-06
3.20815e-06
3.01233e-06
2.98862e-06
3.1425e-06
3.07485e-06
2.83124e-06
2.78867e-06
3.00054e-06
2.91557e-06
2.60848e-06
2.54116e-06
2.82318e-06
2.71149e-06
2.3319e-06
2.23081e-06
2.61514e-06
2.47452e-06
2.01174e-06
1.88529e-06
2.36009e-06
2.1688e-06
1.65339e-06
1.47918e-06
2.00463e-06
-1.59761e-05
-1.6451e-05
-1.637e-05
-1.59842e-05
-1.59068e-05
-1.60939e-05
-1.59629e-05
-1.53882e-05
-1.53663e-05
-1.5643e-05
-1.54881e-05
-1.49209e-05
-1.49973e-05
-1.53727e-05
-1.52206e-05
-1.46154e-05
-1.47618e-05
-1.52299e-05
-1.50944e-05
-1.44217e-05
-1.46106e-05
-1.51758e-05
-1.50605e-05
-1.42806e-05
-1.44743e-05
-1.51372e-05
-1.5053e-05
-1.41276e-05
-1.43013e-05
-1.50743e-05
-1.50318e-05
-1.39136e-05
-1.40193e-05
-1.49059e-05
-1.49008e-05
-1.35392e-05
-1.3486e-05
-1.44071e-05
-1.44968e-05
-1.27129e-05
3.69475e-06
3.65624e-06
3.52958e-06
3.59468e-06
3.61152e-06
3.53707e-06
3.43954e-06
3.47213e-06
3.48164e-06
3.42988e-06
3.38037e-06
3.50355e-06
3.60794e-06
3.59412e-06
3.57099e-06
3.78394e-06
3.96596e-06
3.98175e-06
3.96141e-06
4.26847e-06
4.5134e-06
4.54948e-06
4.51537e-06
4.91644e-06
5.20668e-06
5.24712e-06
5.19074e-06
5.70126e-06
6.02655e-06
6.06388e-06
5.974e-06
6.61215e-06
6.94707e-06
6.98688e-06
6.87394e-06
7.62473e-06
7.9591e-06
7.97546e-06
7.81257e-06
8.69313e-06
1.92898e-06
1.76043e-06
1.69298e-06
1.6781e-06
1.66225e-06
1.55029e-06
1.48978e-06
1.57314e-06
1.54304e-06
1.37803e-06
1.35466e-06
1.45862e-06
1.43457e-06
1.20965e-06
1.18531e-06
1.35108e-06
1.32014e-06
1.02705e-06
9.93123e-07
1.22601e-06
1.1933e-06
8.19014e-07
7.6112e-07
1.09449e-06
1.05281e-06
5.7731e-07
4.82739e-07
9.45554e-07
9.02015e-07
2.87963e-07
1.42673e-07
7.7932e-07
7.26793e-07
-7.20294e-08
-2.74497e-07
5.75623e-07
5.21354e-07
-4.57424e-07
-8.07196e-07
3.79621e-07
2.67539e-06
2.47347e-06
2.38246e-06
2.33283e-06
2.29341e-06
2.18508e-06
2.12168e-06
2.18554e-06
2.14506e-06
1.98889e-06
1.96246e-06
2.06075e-06
2.02e-06
1.81255e-06
1.80899e-06
1.95134e-06
1.91629e-06
1.6482e-06
1.64505e-06
1.86408e-06
1.82667e-06
1.47654e-06
1.45751e-06
1.77281e-06
1.73024e-06
1.27498e-06
1.22622e-06
1.67347e-06
1.61409e-06
1.02721e-06
9.35004e-07
1.55364e-06
1.4711e-06
7.01212e-07
5.62106e-07
1.38752e-06
1.27512e-06
3.18103e-07
5.85336e-08
1.15742e-06
3.1974e-06
2.93894e-06
2.82562e-06
2.73763e-06
2.6771e-06
2.57543e-06
2.50896e-06
2.55448e-06
2.50173e-06
2.35225e-06
2.34029e-06
2.41507e-06
2.36716e-06
2.17335e-06
2.1843e-06
2.30881e-06
2.26879e-06
2.02408e-06
2.04173e-06
2.24357e-06
2.21035e-06
1.89842e-06
1.91325e-06
2.2165e-06
2.17302e-06
1.76373e-06
1.75721e-06
2.19329e-06
2.13578e-06
1.6e-06
1.56115e-06
2.17454e-06
2.08865e-06
1.38231e-06
1.31208e-06
2.13614e-06
2.00543e-06
1.14132e-06
9.78838e-07
2.02106e-06
-1.07135e-05
-1.11371e-05
-1.10916e-05
-1.08501e-05
-1.08825e-05
-1.11381e-05
-1.10613e-05
-1.0577e-05
-1.05728e-05
-1.08536e-05
-1.07319e-05
-1.02065e-05
-1.02648e-05
-1.06554e-05
-1.05206e-05
-9.97146e-06
-1.01168e-05
-1.06422e-05
-1.04993e-05
-9.9061e-06
-1.01254e-05
-1.08051e-05
-1.06759e-05
-9.99478e-06
-1.02718e-05
-1.11367e-05
-1.10281e-05
-1.02098e-05
-1.05272e-05
-1.16314e-05
-1.15669e-05
-1.05406e-05
-1.08789e-05
-1.22858e-05
-1.22589e-05
-1.0942e-05
-1.12572e-05
-1.29965e-05
-1.30986e-05
-1.05551e-05
1.42429e-06
1.35282e-06
1.24929e-06
1.30483e-06
1.38336e-06
1.3314e-06
1.25032e-06
1.33232e-06
1.32558e-06
1.18363e-06
1.14442e-06
1.26247e-06
1.29216e-06
1.1431e-06
1.14527e-06
1.3553e-06
1.45475e-06
1.31241e-06
1.33252e-06
1.66899e-06
1.85534e-06
1.72363e-06
1.75225e-06
2.24295e-06
2.50775e-06
2.37182e-06
2.38362e-06
3.06021e-06
3.40629e-06
3.2564e-06
3.24768e-06
4.16136e-06
4.58305e-06
4.41565e-06
4.37967e-06
5.56292e-06
6.09667e-06
5.91649e-06
5.81554e-06
7.4456e-06
1.73107e-06
1.62956e-06
1.60198e-06
1.55319e-06
1.53218e-06
1.42011e-06
1.36907e-06
1.45334e-06
1.4358e-06
1.2574e-06
1.24363e-06
1.36765e-06
1.346e-06
1.09454e-06
1.10645e-06
1.27767e-06
1.25136e-06
9.11105e-07
9.3829e-07
1.17364e-06
1.13606e-06
7.01827e-07
7.23631e-07
1.07443e-06
1.03456e-06
4.53526e-07
4.55005e-07
9.6159e-07
9.07638e-07
1.38081e-07
9.70601e-08
8.18863e-07
7.5334e-07
-2.90287e-07
-3.80211e-07
6.37801e-07
5.64334e-07
-8.31751e-07
-1.0792e-06
4.22903e-07
2.82877e-06
2.69211e-06
2.63028e-06
2.53876e-06
2.49092e-06
2.39251e-06
2.3312e-06
2.37646e-06
2.33605e-06
2.17736e-06
2.15763e-06
2.24423e-06
2.20821e-06
1.99013e-06
2.01143e-06
2.14584e-06
2.11152e-06
1.82467e-06
1.86348e-06
2.07115e-06
2.03982e-06
1.66621e-06
1.72056e-06
2.03902e-06
2.01856e-06
1.52715e-06
1.57137e-06
2.04525e-06
2.01962e-06
1.36941e-06
1.38677e-06
2.07729e-06
2.03457e-06
1.16209e-06
1.15095e-06
2.12209e-06
2.04748e-06
9.17117e-07
8.00391e-07
2.18256e-06
-8.20616e-06
-8.53823e-06
-8.46305e-06
-8.25142e-06
-8.29587e-06
-8.58903e-06
-8.53285e-06
-8.09966e-06
-8.10974e-06
-8.41615e-06
-8.31297e-06
-7.78502e-06
-7.82679e-06
-8.2301e-06
-8.09659e-06
-7.54635e-06
-7.65234e-06
-8.18713e-06
-8.03941e-06
-7.4465e-06
-7.62593e-06
-8.32389e-06
-8.17064e-06
-7.4929e-06
-7.73526e-06
-8.63964e-06
-8.50345e-06
-7.68881e-06
-7.99677e-06
-9.20397e-06
-9.09192e-06
-8.07058e-06
-8.44576e-06
-1.00596e-05
-9.97083e-06
-8.65742e-06
-9.06419e-06
-1.11999e-05
-1.12426e-05
-9.42621e-06
5.28411e-07
5.09828e-07
4.59497e-07
5.18883e-07
6.17574e-07
5.78504e-07
5.13634e-07
6.4037e-07
6.53304e-07
4.82844e-07
4.52132e-07
5.81468e-07
5.89858e-07
3.70664e-07
3.73025e-07
5.84113e-07
6.39676e-07
3.89768e-07
4.29489e-07
7.50487e-07
8.73744e-07
6.02275e-07
6.63396e-07
1.14347e-06
1.35143e-06
1.04007e-06
1.0982e-06
1.78855e-06
2.08501e-06
1.73721e-06
1.78586e-06
2.75253e-06
3.16246e-06
2.76303e-06
2.78555e-06
4.11677e-06
4.6826e-06
4.22983e-06
4.1845e-06
6.17922e-06
1.60532e-06
1.53537e-06
1.54072e-06
1.48518e-06
1.46859e-06
1.36382e-06
1.32051e-06
1.39553e-06
1.38371e-06
1.20489e-06
1.18487e-06
1.32133e-06
1.30762e-06
1.04355e-06
1.0658e-06
1.24913e-06
1.23087e-06
8.66595e-07
9.18142e-07
1.16855e-06
1.14087e-06
6.60923e-07
7.30759e-07
1.08504e-06
1.05714e-06
4.23754e-07
4.88744e-07
1.00029e-06
9.66573e-07
1.09888e-07
1.47486e-07
8.88755e-07
8.38774e-07
-3.43634e-07
-3.23161e-07
7.33156e-07
6.71326e-07
-9.52757e-07
-1.07887e-06
5.47171e-07
2.43443e-06
2.36439e-06
2.35365e-06
2.2544e-06
2.22973e-06
2.13986e-06
2.09124e-06
2.1332e-06
2.10366e-06
1.93034e-06
1.91932e-06
2.01978e-06
1.99489e-06
1.74658e-06
1.7759e-06
1.91765e-06
1.89475e-06
1.56448e-06
1.62767e-06
1.83822e-06
1.81507e-06
1.39121e-06
1.47917e-06
1.80385e-06
1.79573e-06
1.23876e-06
1.32925e-06
1.81779e-06
1.80442e-06
1.05551e-06
1.14386e-06
1.87157e-06
1.84631e-06
8.30991e-07
9.06013e-07
1.96226e-06
1.93231e-06
5.55072e-07
5.34412e-07
2.1323e-06
-6.44798e-06
-6.73896e-06
-6.64682e-06
-6.42176e-06
-6.47261e-06
-6.7835e-06
-6.72627e-06
-6.33167e-06
-6.36082e-06
-6.68437e-06
-6.60013e-06
-6.08382e-06
-6.12214e-06
-6.52063e-06
-6.3994e-06
-5.81976e-06
-5.90654e-06
-6.43121e-06
-6.27315e-06
-5.65852e-06
-5.80352e-06
-6.50959e-06
-6.32672e-06
-5.63035e-06
-5.82045e-06
-6.73554e-06
-6.54744e-06
-5.71507e-06
-5.96604e-06
-7.19696e-06
-7.01811e-06
-5.99021e-06
-6.31739e-06
-8.01703e-06
-7.84485e-06
-6.52172e-06
-6.92389e-06
-9.25886e-06
-9.19674e-06
-7.31813e-06
-1.96918e-07
-2.26275e-07
-2.22247e-07
-1.57065e-07
-4.47833e-08
-8.2583e-08
-1.22672e-07
4.35114e-08
8.95335e-08
-1.02719e-07
-1.30566e-07
4.31493e-08
5.35786e-08
-2.31131e-07
-2.14388e-07
5.3383e-09
3.41816e-08
-3.14132e-07
-2.6118e-07
6.37281e-08
1.37211e-07
-2.57695e-07
-1.68657e-07
3.06558e-07
4.51653e-07
-1.81977e-08
8.31777e-08
7.66556e-07
9.9821e-07
4.36426e-07
5.40555e-07
1.52524e-06
1.87534e-06
1.2116e-06
1.32232e-06
2.71006e-06
3.24636e-06
2.45439e-06
2.48935e-06
4.64979e-06
1.50508e-06
1.45975e-06
1.47527e-06
1.41879e-06
1.40676e-06
1.29912e-06
1.26547e-06
1.33679e-06
1.33086e-06
1.13752e-06
1.12052e-06
1.2701e-06
1.26986e-06
9.81443e-07
1.00732e-06
1.2102e-06
1.20325e-06
8.12578e-07
8.81395e-07
1.14116e-06
1.12886e-06
6.13434e-07
7.17798e-07
1.07742e-06
1.07146e-06
3.89159e-07
5.03843e-07
1.02501e-06
1.00627e-06
8.68336e-08
2.08757e-07
9.55416e-07
9.16589e-07
-3.59979e-07
-2.32838e-07
8.41557e-07
7.95438e-07
-9.83202e-07
-9.62557e-07
7.23778e-07
2.10293e-06
2.05526e-06
2.07365e-06
1.98853e-06
1.96781e-06
1.87767e-06
1.86082e-06
1.89299e-06
1.87408e-06
1.70207e-06
1.69757e-06
1.80316e-06
1.77528e-06
1.5222e-06
1.55702e-06
1.71139e-06
1.68678e-06
1.3227e-06
1.40657e-06
1.6335e-06
1.6051e-06
1.1281e-06
1.25253e-06
1.58769e-06
1.57437e-06
9.52743e-07
1.09939e-06
1.59881e-06
1.58318e-06
7.45285e-07
9.10658e-07
1.64902e-06
1.63341e-06
4.91373e-07
6.70766e-07
1.74861e-06
1.74293e-06
1.62845e-07
2.69787e-07
1.97278e-06
-5.10684e-06
-5.38097e-06
-5.26155e-06
-5.05471e-06
-5.08291e-06
-5.38867e-06
-5.33103e-06
-4.96739e-06
-5.01445e-06
-5.36949e-06
-5.29193e-06
-4.78769e-06
-4.82192e-06
-5.2504e-06
-5.12687e-06
-4.54027e-06
-4.59681e-06
-5.13154e-06
-4.96276e-06
-4.32426e-06
-4.43294e-06
-5.13138e-06
-4.92058e-06
-4.21336e-06
-4.34831e-06
-5.25934e-06
-5.02821e-06
-4.17648e-06
-4.35493e-06
-5.58857e-06
-5.34223e-06
-4.29108e-06
-4.548e-06
-6.26999e-06
-5.98875e-06
-4.65103e-06
-4.98749e-06
-7.41013e-06
-7.20638e-06
-5.28896e-06
-7.93307e-07
-8.43268e-07
-8.2557e-07
-7.34725e-07
-6.25795e-07
-6.89312e-07
-7.04248e-07
-4.95594e-07
-4.20649e-07
-6.23994e-07
-6.43636e-07
-4.15464e-07
-3.90071e-07
-7.20282e-07
-7.05918e-07
-4.35679e-07
-4.27263e-07
-8.49179e-07
-7.88597e-07
-4.43587e-07
-3.96493e-07
-9.19254e-07
-8.06313e-07
-3.07423e-07
-2.10389e-07
-8.35033e-07
-6.98922e-07
2.58509e-09
1.62544e-07
-5.95836e-07
-4.33376e-07
5.55057e-07
8.33655e-07
-9.75574e-08
9.38277e-08
1.49833e-06
1.96543e-06
8.22505e-07
9.67607e-07
3.17478e-06
1.42029e-06
1.38828e-06
1.42527e-06
1.35265e-06
1.35047e-06
1.24701e-06
1.22701e-06
1.29039e-06
1.28113e-06
1.08872e-06
1.07206e-06
1.23061e-06
1.22908e-06
9.32296e-07
9.62417e-07
1.17567e-06
1.17873e-06
7.59908e-07
8.4188e-07
1.11883e-06
1.10768e-06
5.62336e-07
6.93116e-07
1.06386e-06
1.06819e-06
3.51432e-07
5.11826e-07
1.04142e-06
1.03615e-06
6.03319e-08
2.52884e-07
1.00386e-06
9.81332e-07
-3.67975e-07
-1.28535e-07
9.38568e-07
9.14325e-07
-9.79387e-07
-8.06469e-07
8.95784e-07
1.84093e-06
1.79802e-06
1.8353e-06
1.74161e-06
1.73756e-06
1.64568e-06
1.64143e-06
1.67662e-06
1.66606e-06
1.47811e-06
1.48409e-06
1.60084e-06
1.58336e-06
1.30279e-06
1.33923e-06
1.5218e-06
1.50219e-06
1.11491e-06
1.20687e-06
1.44954e-06
1.42424e-06
8.98318e-07
1.05548e-06
1.39222e-06
1.37977e-06
6.92404e-07
8.90081e-07
1.39664e-06
1.38473e-06
4.63268e-07
6.89251e-07
1.44111e-06
1.42885e-06
1.6586e-07
4.54355e-07
1.53664e-06
1.53993e-06
-2.07624e-07
4.92615e-08
1.77661e-06
-4.02302e-06
-4.28059e-06
-4.16038e-06
-3.93847e-06
-3.97714e-06
-4.27767e-06
-4.19786e-06
-3.86724e-06
-3.91388e-06
-4.2963e-06
-4.20907e-06
-3.7336e-06
-3.77664e-06
-4.22459e-06
-4.09811e-06
-3.52699e-06
-3.57663e-06
-4.13476e-06
-3.94789e-06
-3.30127e-06
-3.37076e-06
-4.07787e-06
-3.84131e-06
-3.11099e-06
-3.2018e-06
-4.11391e-06
-3.84809e-06
-2.97263e-06
-3.1021e-06
-4.32832e-06
-4.00438e-06
-2.93545e-06
-3.12595e-06
-4.82759e-06
-4.44941e-06
-3.09597e-06
-3.35075e-06
-5.77828e-06
-5.41814e-06
-3.48246e-06
-1.32724e-06
-1.40939e-06
-1.37041e-06
-1.26842e-06
-1.15339e-06
-1.24595e-06
-1.23865e-06
-9.892e-07
-9.05638e-07
-1.11756e-06
-1.1324e-06
-8.33763e-07
-7.91512e-07
-1.15674e-06
-1.13243e-06
-7.92161e-07
-7.841e-07
-1.27407e-06
-1.21292e-06
-7.99202e-07
-7.9523e-07
-1.41452e-06
-1.28376e-06
-7.48728e-07
-6.93565e-07
-1.44201e-06
-1.27329e-06
-5.45337e-07
-4.27159e-07
-1.36847e-06
-1.16035e-06
-1.53483e-07
6.16622e-08
-1.12866e-06
-8.42974e-07
5.48761e-07
9.39093e-07
-5.45254e-07
-2.84515e-07
1.90507e-06
1.37553e-06
1.34975e-06
1.39184e-06
1.31227e-06
1.30956e-06
1.19708e-06
1.20432e-06
1.24311e-06
1.25598e-06
1.03894e-06
1.03314e-06
1.19349e-06
1.19762e-06
8.79005e-07
9.05575e-07
1.13537e-06
1.14399e-06
7.05683e-07
7.94372e-07
1.08514e-06
1.09265e-06
5.09254e-07
6.63026e-07
1.04925e-06
1.06439e-06
2.98921e-07
4.86847e-07
1.04281e-06
1.0459e-06
1.54502e-08
2.67207e-07
1.03419e-06
1.02815e-06
-3.87105e-07
-5.79255e-08
1.02063e-06
1.01217e-06
-9.71529e-07
-6.4296e-07
1.04181e-06
1.6035e-06
1.56035e-06
1.61924e-06
1.53776e-06
1.52849e-06
1.43319e-06
1.44155e-06
1.48438e-06
1.47576e-06
1.28317e-06
1.29588e-06
1.41392e-06
1.41137e-06
1.11365e-06
1.16183e-06
1.36317e-06
1.34015e-06
9.11011e-07
1.02507e-06
1.28662e-06
1.26903e-06
6.91432e-07
8.67194e-07
1.22773e-06
1.21825e-06
4.67896e-07
7.02008e-07
1.22557e-06
1.21585e-06
2.17493e-07
5.06154e-07
1.26526e-06
1.24535e-06
-1.18163e-07
2.67445e-07
1.33897e-06
1.34698e-06
-5.39693e-07
-1.2614e-07
1.58536e-06
-3.09349e-06
-3.33876e-06
-3.21456e-06
-3.01571e-06
-3.02727e-06
-3.32371e-06
-3.22816e-06
-2.92206e-06
-2.98334e-06
-3.38217e-06
-3.28055e-06
-2.82657e-06
-2.8905e-06
-3.36424e-06
-3.24392e-06
-2.67976e-06
-2.72522e-06
-3.30161e-06
-3.12269e-06
-2.46042e-06
-2.53191e-06
-3.24462e-06
-2.98368e-06
-2.23916e-06
-2.30024e-06
-3.22339e-06
-2.91748e-06
-2.02267e-06
-2.12472e-06
-3.35012e-06
-2.968e-06
-1.88422e-06
-2.01722e-06
-3.70594e-06
-3.22604e-06
-1.86503e-06
-2.03678e-06
-4.42742e-06
-3.92078e-06
-1.98665e-06
-1.80751e-06
-1.92829e-06
-1.87902e-06
-1.7392e-06
-1.63507e-06
-1.77987e-06
-1.75499e-06
-1.46082e-06
-1.35343e-06
-1.60366e-06
-1.61006e-06
-1.22955e-06
-1.17056e-06
-1.57515e-06
-1.54812e-06
-1.12627e-06
-1.106e-06
-1.65019e-06
-1.57875e-06
-1.09727e-06
-1.0888e-06
-1.80468e-06
-1.65595e-06
-1.06308e-06
-1.02537e-06
-1.89981e-06
-1.70567e-06
-9.19043e-07
-8.19217e-07
-1.93562e-06
-1.67779e-06
-6.23778e-07
-4.58945e-07
-1.88053e-06
-1.51528e-06
-1.00588e-07
2.03961e-07
-1.61215e-06
-1.22078e-06
9.29437e-07
1.32923e-06
1.31486e-06
1.36232e-06
1.27124e-06
1.28419e-06
1.16362e-06
1.17982e-06
1.21577e-06
1.21858e-06
9.93147e-07
1.00804e-06
1.14926e-06
1.16623e-06
8.37892e-07
8.71345e-07
1.1066e-06
1.12889e-06
6.52113e-07
7.47456e-07
1.05875e-06
1.07609e-06
4.50528e-07
6.0846e-07
1.02828e-06
1.04932e-06
2.37059e-07
4.5839e-07
1.03248e-06
1.04886e-06
-3.52827e-08
2.58454e-07
1.04407e-06
1.05388e-06
-4.25414e-07
-1.60094e-08
1.05599e-06
1.07844e-06
-9.70812e-07
-5.07228e-07
1.15239e-06
1.40039e-06
1.36768e-06
1.43451e-06
1.34237e-06
1.33089e-06
1.23495e-06
1.27391e-06
1.29625e-06
1.30202e-06
1.09176e-06
1.12415e-06
1.25804e-06
1.25522e-06
9.18082e-07
9.83326e-07
1.20741e-06
1.19379e-06
7.3525e-07
8.47709e-07
1.14318e-06
1.12446e-06
4.95934e-07
6.99748e-07
1.09158e-06
1.07722e-06
2.61895e-07
5.23755e-07
1.09394e-06
1.06672e-06
-1.55265e-08
3.34083e-07
1.11977e-06
1.08851e-06
-3.70135e-07
1.14412e-07
1.18414e-06
1.18113e-06
-8.21069e-07
-2.60312e-07
1.4089e-06
-2.26829e-06
-2.50207e-06
-2.376e-06
-2.19619e-06
-2.20513e-06
-2.47349e-06
-2.3786e-06
-2.086e-06
-2.14925e-06
-2.54746e-06
-2.44942e-06
-2.02603e-06
-2.10138e-06
-2.59601e-06
-2.45538e-06
-1.91947e-06
-1.99157e-06
-2.5938e-06
-2.38991e-06
-1.74624e-06
-1.80867e-06
-2.54517e-06
-2.26473e-06
-1.51447e-06
-1.56181e-06
-2.50242e-06
-2.16572e-06
-1.28257e-06
-1.33913e-06
-2.58529e-06
-2.15874e-06
-1.07184e-06
-1.15154e-06
-2.84151e-06
-2.28582e-06
-9.19782e-07
-1.02481e-06
-3.38103e-06
-2.72991e-06
-8.07165e-07
-2.28379e-06
-2.43541e-06
-2.38445e-06
-2.18189e-06
-2.09491e-06
-2.30665e-06
-2.2592e-06
-1.90706e-06
-1.8018e-06
-2.1088e-06
-2.08722e-06
-1.63488e-06
-1.55691e-06
-1.99779e-06
-1.97259e-06
-1.45742e-06
-1.40673e-06
-2.02211e-06
-1.94025e-06
-1.36339e-06
-1.34136e-06
-2.14106e-06
-1.99859e-06
-1.30537e-06
-1.26711e-06
-2.25573e-06
-2.04181e-06
-1.15523e-06
-1.08099e-06
-2.3386e-06
-2.03399e-06
-9.07684e-07
-7.821e-07
-2.4001e-06
-1.95961e-06
-5.12594e-07
-2.57777e-07
-2.35907e-06
-1.8557e-06
2.55358e-07
1.30377e-06
1.29408e-06
1.35552e-06
1.24718e-06
1.27111e-06
1.14419e-06
1.17284e-06
1.19693e-06
1.21085e-06
9.77381e-07
9.9904e-07
1.13434e-06
1.15646e-06
7.92836e-07
8.33179e-07
1.08216e-06
1.10882e-06
6.07832e-07
6.96006e-07
1.03443e-06
1.05936e-06
3.86087e-07
5.63826e-07
1.00963e-06
1.04433e-06
1.68506e-07
4.1108e-07
1.0194e-06
1.04223e-06
-1.0565e-07
2.26379e-07
1.04516e-06
1.06662e-06
-4.83534e-07
-6.12124e-09
1.07825e-06
1.11412e-06
-1.00386e-06
-4.14329e-07
1.22026e-06
1.22731e-06
1.18957e-06
1.25788e-06
1.16964e-06
1.16007e-06
1.04416e-06
1.10895e-06
1.13281e-06
1.135e-06
9.03849e-07
9.54117e-07
1.10207e-06
1.10311e-06
7.40545e-07
8.3076e-07
1.06494e-06
1.04674e-06
5.51146e-07
6.93437e-07
1.01463e-06
9.89531e-07
3.27262e-07
5.40056e-07
9.72293e-07
9.5727e-07
7.53447e-08
3.76076e-07
9.66341e-07
9.5379e-07
-2.1214e-07
1.81745e-07
1.0021e-06
9.62469e-07
-5.96036e-07
-3.24746e-08
1.05655e-06
1.04223e-06
-1.0668e-06
-3.72511e-07
1.26709e-06
-1.5195e-06
-1.72931e-06
-1.5802e-06
-1.44995e-06
-1.46241e-06
-1.70322e-06
-1.58442e-06
-1.34399e-06
-1.40149e-06
-1.77476e-06
-1.66795e-06
-1.30428e-06
-1.3762e-06
-1.86464e-06
-1.7357e-06
-1.23274e-06
-1.29916e-06
-1.92545e-06
-1.71783e-06
-1.1068e-06
-1.15681e-06
-1.92622e-06
-1.63179e-06
-8.92464e-07
-9.33404e-07
-1.89819e-06
-1.54806e-06
-6.53946e-07
-7.16574e-07
-1.99255e-06
-1.5037e-06
-4.32691e-07
-4.88361e-07
-2.19502e-06
-1.54857e-06
-2.00473e-07
-2.62049e-07
-2.58357e-06
-1.80082e-06
7.9144e-08
-2.74624e-06
-2.96646e-06
-2.8975e-06
-2.63075e-06
-2.51939e-06
-2.81769e-06
-2.77412e-06
-2.32663e-06
-2.22492e-06
-2.62471e-06
-2.57088e-06
-2.02509e-06
-1.93853e-06
-2.46567e-06
-2.40293e-06
-1.77673e-06
-1.71817e-06
-2.40977e-06
-2.31752e-06
-1.61474e-06
-1.59148e-06
-2.48246e-06
-2.31498e-06
-1.50209e-06
-1.4549e-06
-2.56963e-06
-2.32317e-06
-1.32452e-06
-1.24346e-06
-2.63984e-06
-2.30887e-06
-1.06268e-06
-9.44448e-07
-2.73955e-06
-2.24642e-06
-7.27732e-07
-4.95832e-07
-2.86109e-06
-2.25024e-06
-1.32658e-07
1.27702e-06
1.29112e-06
1.34406e-06
1.23958e-06
1.24961e-06
1.12991e-06
1.17388e-06
1.16938e-06
1.19962e-06
9.55885e-07
9.79539e-07
1.12285e-06
1.15174e-06
7.63249e-07
8.11818e-07
1.06426e-06
1.08599e-06
5.55452e-07
6.55261e-07
1.01204e-06
1.04825e-06
3.33922e-07
5.11152e-07
9.97938e-07
1.03048e-06
1.09827e-07
3.6644e-07
1.00957e-06
1.04229e-06
-1.86585e-07
1.92762e-07
1.03219e-06
1.06536e-06
-5.72183e-07
-2.0393e-08
1.08821e-06
1.13402e-06
-1.05118e-06
-3.57547e-07
1.25171e-06
1.06275e-06
1.01924e-06
1.10654e-06
1.0067e-06
1.00114e-06
8.78897e-07
9.58913e-07
9.9037e-07
9.87341e-07
7.2865e-07
8.03491e-07
9.50563e-07
9.57863e-07
5.59283e-07
6.72806e-07
9.17079e-07
9.23874e-07
3.65421e-07
5.33541e-07
8.92283e-07
8.66628e-07
1.40624e-07
3.76201e-07
8.68759e-07
8.46397e-07
-9.8719e-08
2.30158e-07
8.63691e-07
8.39101e-07
-4.03597e-07
4.39795e-08
9.01417e-07
8.58935e-07
-7.8465e-07
-1.55397e-07
9.40296e-07
9.28918e-07
-1.2769e-06
-4.65323e-07
1.14489e-06
-8.04153e-07
-9.7916e-07
-8.35712e-07
-7.45716e-07
-7.57963e-07
-9.80722e-07
-8.49883e-07
-6.57517e-07
-7.04619e-07
-1.05408e-06
-9.28355e-07
-6.08843e-07
-6.92806e-07
-1.17157e-06
-1.02595e-06
-5.78979e-07
-6.55487e-07
-1.27214e-06
-1.05645e-06
-5.02377e-07
-5.40272e-07
-1.32383e-06
-1.02267e-06
-3.27128e-07
-3.65701e-07
-1.38764e-06
-9.86198e-07
-1.26473e-07
-1.75471e-07
-1.4949e-06
-9.63532e-07
9.62962e-08
4.11155e-08
-1.70745e-06
-9.68403e-07
3.66027e-07
3.167e-07
-2.01589e-06
-1.10133e-06
7.46921e-07
-3.20483e-06
-3.50651e-06
-3.41481e-06
-3.06352e-06
-2.95148e-06
-3.34406e-06
-3.28734e-06
-2.75638e-06
-2.64087e-06
-3.15062e-06
-3.08336e-06
-2.42579e-06
-2.32473e-06
-2.95335e-06
-2.87335e-06
-2.12298e-06
-2.04829e-06
-2.84735e-06
-2.73267e-06
-1.87917e-06
-1.84144e-06
-2.83915e-06
-2.64765e-06
-1.68596e-06
-1.61359e-06
-2.84919e-06
-2.5831e-06
-1.43911e-06
-1.34284e-06
-2.88274e-06
-2.50415e-06
-1.1492e-06
-1.00367e-06
-2.97937e-06
-2.43147e-06
-8.02184e-07
-5.81875e-07
-3.15506e-06
-2.44649e-06
-3.14726e-07
1.27644e-06
1.2983e-06
1.34136e-06
1.23347e-06
1.2553e-06
1.12589e-06
1.1809e-06
1.18294e-06
1.19477e-06
9.3936e-07
9.8973e-07
1.11535e-06
1.145e-06
7.31392e-07
8.04429e-07
1.05829e-06
1.0909e-06
5.13288e-07
6.34547e-07
1.00636e-06
1.04164e-06
2.89331e-07
4.67072e-07
9.94774e-07
1.03674e-06
3.99293e-08
3.22259e-07
9.99622e-07
1.03484e-06
-2.75464e-07
1.51105e-07
1.02702e-06
1.06415e-06
-6.527e-07
-4.00728e-08
1.07051e-06
1.14218e-06
-1.13136e-06
-3.40759e-07
1.26371e-06
9.0322e-07
8.56617e-07
9.63666e-07
8.52673e-07
8.49067e-07
7.09707e-07
8.00204e-07
8.26242e-07
8.34108e-07
5.5795e-07
6.49887e-07
8.15412e-07
8.13747e-07
3.93473e-07
5.11744e-07
7.8877e-07
7.81036e-07
1.85571e-07
3.70747e-07
7.64642e-07
7.6114e-07
-2.899e-08
2.36269e-07
7.6505e-07
7.36331e-07
-2.77243e-07
7.90529e-08
7.7858e-07
7.5367e-07
-5.80269e-07
-8.38947e-08
8.10456e-07
7.63948e-07
-9.78812e-07
-2.65759e-07
8.58968e-07
8.34866e-07
-1.46429e-06
-5.33787e-07
1.04579e-06
-1.45142e-07
-2.50723e-07
-9.63551e-08
-7.64049e-08
-9.20411e-08
-2.60318e-07
-1.09554e-07
7.06734e-09
-3.49498e-08
-3.56638e-07
-2.08681e-07
1.46861e-08
-2.94904e-08
-5.05373e-07
-3.28185e-07
3.31949e-08
-2.61739e-08
-6.44313e-07
-4.03565e-07
9.1335e-08
2.57348e-08
-7.70952e-07
-4.50158e-07
1.93534e-07
1.47419e-07
-9.02111e-07
-4.58085e-07
3.47436e-07
2.81256e-07
-1.07965e-06
-4.87746e-07
5.4032e-07
4.83517e-07
-1.30417e-06
-4.90952e-07
8.19064e-07
7.74874e-07
-1.58611e-06
-5.57081e-07
1.2489e-06
-3.65637e-06
-4.05451e-06
-3.98449e-06
-3.50563e-06
-3.37979e-06
-3.90326e-06
-3.82466e-06
-3.16406e-06
-3.06438e-06
-3.68333e-06
-3.6024e-06
-2.80517e-06
-2.73266e-06
-3.46983e-06
-3.37058e-06
-2.46799e-06
-2.40048e-06
-3.30839e-06
-3.1805e-06
-2.16871e-06
-2.08513e-06
-3.20613e-06
-2.99504e-06
-1.86567e-06
-1.77927e-06
-3.13866e-06
-2.85122e-06
-1.5489e-06
-1.41345e-06
-3.11065e-06
-2.68882e-06
-1.17834e-06
-1.01904e-06
-3.16935e-06
-2.55198e-06
-8.13756e-07
-5.6519e-07
-3.35011e-06
-2.54177e-06
-3.48721e-07
1.27326e-06
1.30838e-06
1.37732e-06
1.24016e-06
1.26726e-06
1.13125e-06
1.18581e-06
1.17735e-06
1.21149e-06
9.22804e-07
9.79988e-07
1.11006e-06
1.15607e-06
7.08964e-07
8.01288e-07
1.0551e-06
1.10042e-06
4.72722e-07
6.20178e-07
1.01458e-06
1.06184e-06
2.32939e-07
4.44504e-07
1.00704e-06
1.04289e-06
-3.82622e-08
2.96528e-07
9.95989e-07
1.03947e-06
-3.5712e-07
1.12962e-07
1.02313e-06
1.06792e-06
-7.48704e-07
-7.04961e-08
1.0705e-06
1.14507e-06
-1.21166e-06
-3.26379e-07
1.26379e-06
7.46722e-07
6.9142e-07
8.11033e-07
7.09601e-07
7.10593e-07
5.47589e-07
6.40474e-07
6.97437e-07
7.00311e-07
3.91879e-07
5.1399e-07
6.81267e-07
6.85312e-07
2.18554e-07
3.61904e-07
6.6142e-07
6.61195e-07
2.17339e-08
2.1738e-07
6.56839e-07
6.43328e-07
-1.92132e-07
9.97384e-08
6.60237e-07
6.55309e-07
-4.48373e-07
-5.04715e-08
6.87992e-07
6.49452e-07
-7.68702e-07
-2.08329e-07
7.24181e-07
6.73418e-07
-1.16684e-06
-3.71363e-07
7.756e-07
7.42421e-07
-1.64951e-06
-6.05082e-07
9.56781e-07
5.1859e-07
5.02118e-07
6.48874e-07
5.61937e-07
5.43356e-07
4.42133e-07
6.23934e-07
6.10632e-07
5.80254e-07
3.21414e-07
4.94872e-07
6.14393e-07
5.64106e-07
1.47893e-07
3.65922e-07
6.06401e-07
5.57795e-07
-4.5844e-08
2.4232e-07
6.25001e-07
5.77608e-07
-2.42062e-07
1.209e-07
6.81455e-07
6.13076e-07
-4.50987e-07
4.03577e-08
7.80443e-07
7.20315e-07
-6.93684e-07
-1.71843e-08
9.52423e-07
8.8438e-07
-9.64768e-07
-5.03644e-08
1.2053e-06
1.1594e-06
-1.26347e-06
-9.1884e-08
1.65238e-06
-4.12494e-06
-4.66216e-06
-4.56922e-06
-3.92902e-06
-3.8052e-06
-4.47759e-06
-4.40061e-06
-3.57147e-06
-3.47047e-06
-4.24876e-06