/*--------------------------------*- C++ -*----------------------------------*\
| =========                 |                                                 |
| \\      /  F ield         | OpenFOAM: The Open Source CFD Toolbox           |
|  \\    /   O peration     | Version:  2506                                  |
|   \\  /    A nd           | Website:  www.openfoam.com                      |
|    \\/     M anipulation  |                                                 |
\*---------------------------------------------------------------------------*/
FoamFile
{
    version     2.0;
    format      ascii;
    arch        "LSB;label=32;scalar=64";
    class       volScalarField;
    location    "6000";
    object      nut;
}
// * * * * * * * * * * * * * * * * * * * * * * * * * * * * * * * * * * * * * //

dimensions      [0 2 -1 0 0 0 0];

internalField   nonuniform List<scalar> 
72100
(
2.61593e-09
2.52086e-09
2.52062e-09
2.53769e-09
2.48752e-09
2.39412e-09
2.38181e-09
2.38205e-09
2.3237e-09
2.21571e-09
2.20223e-09
2.19989e-09
2.13046e-09
2.00672e-09
1.99225e-09
1.98683e-09
1.9058e-09
1.76606e-09
1.75031e-09
1.74048e-09
1.64697e-09
1.49113e-09
1.47366e-09
1.45811e-09
1.3541e-09
1.18563e-09
1.16657e-09
1.14493e-09
1.03313e-09
8.58293e-10
8.38566e-10
8.12461e-10
7.012e-10
5.36443e-10
5.19118e-10
4.94087e-10
4.03773e-10
2.742e-10
2.65104e-10
2.53363e-10
4.52463e-08
3.91083e-08
3.90726e-08
4.24058e-08
4.17202e-08
3.73029e-08
3.74106e-08
4.05976e-08
3.97881e-08
3.5456e-08
3.56391e-08
3.8479e-08
3.74913e-08
3.32449e-08
3.34622e-08
3.58854e-08
3.47187e-08
3.05837e-08
3.07961e-08
3.27311e-08
3.1366e-08
2.73609e-08
2.75322e-08
2.89085e-08
2.73663e-08
2.35527e-08
2.36557e-08
2.44091e-08
2.2673e-08
1.91051e-08
1.91233e-08
1.9219e-08
1.73347e-08
1.4135e-08
1.40734e-08
1.35799e-08
1.16957e-08
9.07537e-09
8.96668e-09
8.10348e-09
1.34865e-07
1.15643e-07
1.1554e-07
1.26423e-07
1.24299e-07
1.10341e-07
1.10678e-07
1.21271e-07
1.18671e-07
1.04979e-07
1.05545e-07
1.15218e-07
1.1199e-07
9.85518e-08
9.9225e-08
1.07739e-07
1.03907e-07
9.07963e-08
9.14583e-08
9.8553e-08
9.40952e-08
8.13687e-08
8.19101e-08
8.73135e-08
8.23364e-08
7.01853e-08
7.05215e-08
7.39664e-08
6.84589e-08
5.70639e-08
5.71421e-08
5.84404e-08
5.25688e-08
4.23268e-08
4.21574e-08
4.14387e-08
3.56498e-08
2.72433e-08
2.69304e-08
2.47951e-08
9.2187e-07
8.46092e-07
8.4401e-07
8.77337e-07
8.66913e-07
8.14247e-07
8.14806e-07
8.50962e-07
8.39174e-07
7.86452e-07
7.87837e-07
8.2088e-07
8.05867e-07
7.52126e-07
7.53802e-07
7.8234e-07
7.636e-07
7.08555e-07
7.1003e-07
7.32566e-07
7.09247e-07
6.52361e-07
6.53124e-07
6.68027e-07
6.40053e-07
5.81536e-07
5.81139e-07
5.86419e-07
5.52579e-07
4.92348e-07
4.90402e-07
4.83992e-07
4.44148e-07
3.83295e-07
3.7968e-07
3.61303e-07
3.16522e-07
2.59756e-07
2.55232e-07
2.2625e-07
3.57645e-06
3.46014e-06
3.44928e-06
3.45757e-06
3.42727e-06
3.35346e-06
3.35024e-06
3.37523e-06
3.34749e-06
3.27175e-06
3.26973e-06
3.28986e-06
3.25447e-06
3.17085e-06
3.1687e-06
3.17951e-06
3.13274e-06
3.03804e-06
3.03472e-06
3.03181e-06
2.96849e-06
2.85788e-06
2.85217e-06
2.83075e-06
2.74808e-06
2.61843e-06
2.60906e-06
2.56201e-06
2.45161e-06
2.29692e-06
2.28225e-06
2.2004e-06
2.05605e-06
1.872e-06
1.8505e-06
1.7286e-06
1.54489e-06
1.34099e-06
1.31572e-06
1.14687e-06
9.59136e-06
9.54223e-06
9.51323e-06
9.38107e-06
9.31381e-06
9.2922e-06
9.27808e-06
9.18745e-06
9.14029e-06
9.12102e-06
9.10905e-06
9.00908e-06
8.95117e-06
8.9163e-06
8.90312e-06
8.7822e-06
8.70175e-06
8.64166e-06
8.62542e-06
8.47313e-06
8.35433e-06
8.25438e-06
8.23282e-06
8.03856e-06
7.87108e-06
7.71906e-06
7.68937e-06
7.43624e-06
7.19301e-06
6.96513e-06
6.9228e-06
6.58727e-06
6.2428e-06
5.91016e-06
5.84802e-06
5.41324e-06
4.93161e-06
4.48459e-06
4.41015e-06
3.83016e-06
1.25804e-05
1.24565e-05
1.24138e-05
1.22833e-05
1.21787e-05
1.21012e-05
1.20823e-05
1.20123e-05
1.19321e-05
1.18635e-05
1.18508e-05
1.17792e-05
1.16822e-05
1.15957e-05
1.15838e-05
1.14937e-05
1.13644e-05
1.1246e-05
1.12322e-05
1.11081e-05
1.09266e-05
1.07559e-05
1.07369e-05
1.05626e-05
1.03184e-05
1.00807e-05
1.00532e-05
9.80409e-06
9.46535e-06
9.13154e-06
9.09004e-06
8.73184e-06
8.27069e-06
7.80887e-06
7.74403e-06
7.24989e-06
6.62541e-06
6.02611e-06
5.95138e-06
5.24563e-06
1.57847e-05
1.57688e-05
1.57483e-05
1.55875e-05
1.54588e-05
1.54037e-05
1.53861e-05
1.53126e-05
1.52501e-05
1.52294e-05
1.52156e-05
1.51782e-05
1.51205e-05
1.50946e-05
1.50794e-05
1.50521e-05
1.49798e-05
1.49311e-05
1.4912e-05
1.48775e-05
1.47672e-05
1.46675e-05
1.46407e-05
1.45841e-05
1.44326e-05
1.42699e-05
1.4234e-05
1.41392e-05
1.39207e-05
1.36659e-05
1.36159e-05
1.34648e-05
1.31668e-05
1.27975e-05
1.27301e-05
1.25227e-05
1.21491e-05
1.16988e-05
1.16211e-05
1.12084e-05
2.48264e-05
2.48805e-05
2.48619e-05
2.46326e-05
2.44262e-05
2.43368e-05
2.43074e-05
2.41568e-05
2.40557e-05
2.40401e-05
2.40208e-05
2.39368e-05
2.38636e-05
2.38613e-05
2.38424e-05
2.37772e-05
2.36961e-05
2.36777e-05
2.36544e-05
2.35749e-05
2.34437e-05
2.33623e-05
2.33275e-05
2.32057e-05
2.30154e-05
2.2848e-05
2.27983e-05
2.26005e-05
2.22962e-05
2.19906e-05
2.19183e-05
2.16062e-05
2.11582e-05
2.06765e-05
2.05739e-05
2.01234e-05
1.95185e-05
1.88663e-05
1.87357e-05
1.81938e-05
4.57049e-05
4.5213e-05
4.49645e-05
4.44504e-05
4.41163e-05
4.40433e-05
4.39704e-05
4.36052e-05
4.34361e-05
4.35112e-05
4.35025e-05
4.31661e-05
4.30302e-05
4.31568e-05
4.31858e-05
4.28066e-05
4.2642e-05
4.27792e-05
4.28357e-05
4.23585e-05
4.21029e-05
4.22077e-05
4.22829e-05
4.16461e-05
4.12532e-05
4.12996e-05
4.1391e-05
4.05018e-05
3.98621e-05
3.97909e-05
3.98929e-05
3.86079e-05
3.76038e-05
3.73567e-05
3.74581e-05
3.56168e-05
3.40397e-05
3.35495e-05
3.37722e-05
3.08427e-05
5.35791e-05
5.28934e-05
5.25639e-05
5.20169e-05
5.15951e-05
5.14128e-05
5.1316e-05
5.09372e-05
5.06727e-05
5.06505e-05
5.06307e-05
5.02914e-05
5.0054e-05
5.00893e-05
5.01186e-05
4.974e-05
4.94591e-05
4.95015e-05
4.95668e-05
4.90851e-05
4.86899e-05
4.86877e-05
4.87787e-05
4.81207e-05
4.75541e-05
4.74692e-05
4.75813e-05
4.66342e-05
4.5767e-05
4.55201e-05
4.56442e-05
4.4234e-05
4.29256e-05
4.24413e-05
4.25673e-05
4.05074e-05
3.85375e-05
3.77591e-05
3.80398e-05
3.4769e-05
4.86008e-05
4.86344e-05
4.86297e-05
4.85269e-05
4.81693e-05
4.77949e-05
4.77333e-05
4.75453e-05
4.72576e-05
4.70167e-05
4.69766e-05
4.69527e-05
4.67539e-05
4.65772e-05
4.65478e-05
4.66058e-05
4.64248e-05
4.62508e-05
4.62221e-05
4.63047e-05
4.60888e-05
4.58594e-05
4.5823e-05
4.58663e-05
4.55699e-05
4.52214e-05
4.51633e-05
4.50771e-05
4.45884e-05
4.39937e-05
4.38881e-05
4.35387e-05
4.27508e-05
4.18148e-05
4.16491e-05
4.09547e-05
3.98476e-05
3.8546e-05
3.83226e-05
3.73515e-05
6.19067e-05
6.19259e-05
6.19283e-05
6.18853e-05
6.14893e-05
6.10048e-05
6.09252e-05
6.0667e-05
6.02607e-05
5.98904e-05
5.98339e-05
5.97546e-05
5.94548e-05
5.91722e-05
5.91309e-05
5.9164e-05
5.89e-05
5.86348e-05
5.85971e-05
5.86731e-05
5.83922e-05
5.8082e-05
5.8037e-05
5.80871e-05
5.77172e-05
5.72837e-05
5.72192e-05
5.71417e-05
5.65782e-05
5.58783e-05
5.57609e-05
5.53632e-05
5.44281e-05
5.33073e-05
5.31113e-05
5.22579e-05
5.09177e-05
4.93349e-05
4.9067e-05
4.78712e-05
9.82448e-05
9.68225e-05
9.59575e-05
9.49983e-05
9.42277e-05
9.38275e-05
9.35718e-05
9.29032e-05
9.24069e-05
9.23181e-05
9.22155e-05
9.16296e-05
9.1224e-05
9.13091e-05
9.13217e-05
9.06982e-05
9.02744e-05
9.04579e-05
9.05656e-05
8.9804e-05
8.92577e-05
8.94806e-05
8.96702e-05
8.8648e-05
8.78627e-05
8.80782e-05
8.83491e-05
8.68862e-05
8.5674e-05
8.58104e-05
8.61611e-05
8.39672e-05
8.20741e-05
8.20904e-05
8.25361e-05
7.92506e-05
7.63295e-05
7.63038e-05
7.72713e-05
7.19883e-05
0.00010949
0.000107816
0.000106825
0.0001058
0.000104909
0.000104366
0.000104062
0.000103381
0.000102773
0.000102547
0.000102403
0.0001018
0.000101256
0.000101196
0.00010117
0.000100525
9.99351e-05
9.99583e-05
0.00010003
9.92384e-05
9.84923e-05
9.85327e-05
9.86892e-05
9.76203e-05
9.65936e-05
9.65924e-05
9.68301e-05
9.52885e-05
9.37756e-05
9.3642e-05
9.3956e-05
9.16273e-05
8.93457e-05
8.90026e-05
8.94006e-05
8.58757e-05
8.24264e-05
8.19136e-05
8.28331e-05
7.7143e-05
9.36354e-05
9.34034e-05
9.34049e-05
9.35398e-05
9.3032e-05
9.22142e-05
9.21145e-05
9.19422e-05
9.12878e-05
9.05024e-05
9.04072e-05
9.03726e-05
8.97663e-05
8.906e-05
8.89806e-05
8.90798e-05
8.84932e-05
8.7795e-05
8.77213e-05
8.78881e-05
8.72764e-05
8.65382e-05
8.64595e-05
8.66153e-05
8.59073e-05
8.50151e-05
8.49083e-05
8.49032e-05
8.39758e-05
8.27742e-05
8.26092e-05
8.22361e-05
8.08689e-05
7.91294e-05
7.88548e-05
7.77727e-05
7.58563e-05
7.34e-05
7.30191e-05
7.14734e-05
0.000109574
0.000109214
0.000109209
0.000109381
0.000108819
0.000107873
0.000107766
0.000107628
0.000106877
0.000105928
0.000105822
0.000105794
0.000105066
0.000104185
0.000104087
0.000104174
0.000103429
0.000102528
0.000102426
0.000102552
0.00010174
0.000100781
0.000100674
0.000100788
9.98734e-05
9.87453e-05
9.86077e-05
9.8528e-05
9.73622e-05
9.58801e-05
9.56756e-05
9.51858e-05
9.35345e-05
9.14805e-05
9.11589e-05
8.98613e-05
8.76026e-05
8.46962e-05
8.42571e-05
8.24694e-05
0.000125933
0.000125442
0.000125441
0.0001257
0.000125099
0.000124017
0.000123898
0.000123789
0.000122917
0.000121789
0.000121667
0.000121658
0.000120796
0.000119723
0.000119611
0.00011971
0.00011882
0.000117717
0.000117594
0.000117691
0.000116662
0.000115445
0.000115308
0.000115354
0.000114206
0.000112805
0.000112632
0.000112453
0.000111011
0.000109214
0.000108962
0.000108305
0.000106314
0.000103891
0.000103507
0.000101943
9.92619e-05
9.58493e-05
9.53287e-05
9.32159e-05
0.000180213
0.000178254
0.000176607
0.000174958
0.000173515
0.000172566
0.000171869
0.000170651
0.00016959
0.000169123
0.000168668
0.000167557
0.000166604
0.000166419
0.000166121
0.000164973
0.000163996
0.000164007
0.00016384
0.000162513
0.000161355
0.000161468
0.000161407
0.000159689
0.000158135
0.000158272
0.00015831
0.000155931
0.0001537
0.000153782
0.000153917
0.000150448
0.000147124
0.000147101
0.000147347
0.000142188
0.000137168
0.000137184
0.000138197
0.000129493
0.00019519
0.000193285
0.000191669
0.000190027
0.000188468
0.000187359
0.000186597
0.000185349
0.000184155
0.000183535
0.00018302
0.000181876
0.000180765
0.000180413
0.000180043
0.000178851
0.000177681
0.000177504
0.000177257
0.000175868
0.000174472
0.000174357
0.000174198
0.000172377
0.000170517
0.000170367
0.000170285
0.000167754
0.000165135
0.000164847
0.000164833
0.000161139
0.000157317
0.0001568
0.000156857
0.000151366
0.000145673
0.000145008
0.000145768
0.000136725
0.000164178
0.000163297
0.000163318
0.000164004
0.000163339
0.000161815
0.000161677
0.000161814
0.000160617
0.000158896
0.000158726
0.000158898
0.000157591
0.000155887
0.000155727
0.000156026
0.000154677
0.000152971
0.000152811
0.000153144
0.000151605
0.000149638
0.000149424
0.000149518
0.000147698
0.000145463
0.0001452
0.000144966
0.000142764
0.000140026
0.000139653
0.000138753
0.000135863
0.00013234
0.000131793
0.000129694
0.000125898
0.000121135
0.000120377
0.0001173
0.000182356
0.000181304
0.000181325
0.000182199
0.000181522
0.000179832
0.000179686
0.000179926
0.0001786
0.00017663
0.000176435
0.000176643
0.000175127
0.000173128
0.000172942
0.000173248
0.000171658
0.000169644
0.000169456
0.000169821
0.000168076
0.000165789
0.000165546
0.000165599
0.000163449
0.000160821
0.00016051
0.000160165
0.000157571
0.000154397
0.000153963
0.000152859
0.000149504
0.000145475
0.00014485
0.000142419
0.000138058
0.000132681
0.000131806
0.000128183
0.000256037
0.000254711
0.000253107
0.000251256
0.000249429
0.000248108
0.000247023
0.000245297
0.000243704
0.000242868
0.000242044
0.00024037
0.000238837
0.000238311
0.000237611
0.00023586
0.000234249
0.00023395
0.000233352
0.00023137
0.000229517
0.000229345
0.000228799
0.000226308
0.000223885
0.000223676
0.000223141
0.000219781
0.000216433
0.000216102
0.000215552
0.00021081
0.000206005
0.000205463
0.000204875
0.000198003
0.000190905
0.00019026
0.000190322
0.00017968
0.000273015
0.00027165
0.000270133
0.000268384
0.000266501
0.000265035
0.000263902
0.000262174
0.000260446
0.000259435
0.000258546
0.00025686
0.000255156
0.000254435
0.000253654
0.000251867
0.000250046
0.000249527
0.000248824
0.000246784
0.000244677
0.000244249
0.000243576
0.000240988
0.000238239
0.000237706
0.000237003
0.000233485
0.000229721
0.000228967
0.0002282
0.00022322
0.000217882
0.000216776
0.000215905
0.000208683
0.000200884
0.000199454
0.000199126
0.000188017
0.000225773
0.000224144
0.000224184
0.00022561
0.000224898
0.000222687
0.000222529
0.000223215
0.000221579
0.000218905
0.000218673
0.000219193
0.000217155
0.000214328
0.000214076
0.000214628
0.000212384
0.000209483
0.000209217
0.00020978
0.000207376
0.000204234
0.000203903
0.000204113
0.000201124
0.000197449
0.000197011
0.000196585
0.000192995
0.000188636
0.000188043
0.000186604
0.000182109
0.000176746
0.000175916
0.000172786
0.000167091
0.000160173
0.000159007
0.000154182
0.000245789
0.000243863
0.000243904
0.000245593
0.000244873
0.00024245
0.000242285
0.000243186
0.000241441
0.000238452
0.000238208
0.000238875
0.000236611
0.000233413
0.000233123
0.00023378
0.000231229
0.000227907
0.000227605
0.000228227
0.000225462
0.000221913
0.000221551
0.000221805
0.000218425
0.000214248
0.00021376
0.000213261
0.000209182
0.000204263
0.000203597
0.000201956
0.000196892
0.000190907
0.00018998
0.000186489
0.000180143
0.000172512
0.000171217
0.000165853
0.000340049
0.000339166
0.000337751
0.000335944
0.000333973
0.000332449
0.000331045
0.000328879
0.00032678
0.000325563
0.000324341
0.000322076
0.000319912
0.00031897
0.000317795
0.000315349
0.000313014
0.000312286
0.000311119
0.000308357
0.000305686
0.000305086
0.000303876
0.000300485
0.000297069
0.000296343
0.000294974
0.00029049
0.000285878
0.0002849
0.000283299
0.000277135
0.000270701
0.000269332
0.000267393
0.000258688
0.000249399
0.00024764
0.000245989
0.000233074
0.00035917
0.000358138
0.000356789
0.000355126
0.000353135
0.000351485
0.000350058
0.00034793
0.000345703
0.000344304
0.000343026
0.000340771
0.00033843
0.000337281
0.000336023
0.000333565
0.000331007
0.000330042
0.000328765
0.000325955
0.000323013
0.000322134
0.000320782
0.000317302
0.000313549
0.000312477
0.00031092
0.000306274
0.000301234
0.000299809
0.000297953
0.000291534
0.000284549
0.000282581
0.000280296
0.000271213
0.000261207
0.000258613
0.000256477
0.000243035
0.000294444
0.000291733
0.00029178
0.000294161
0.000293396
0.000290354
0.000290185
0.000291746
0.00028969
0.000285899
0.000285614
0.00028685
0.000284005
0.000279844
0.000279488
0.000280578
0.000277268
0.000272864
0.000272467
0.000273415
0.000269735
0.000265111
0.000264637
0.000265147
0.000260768
0.000255356
0.000254719
0.000254184
0.000248919
0.000242599
0.000241726
0.000239695
0.000233251
0.000225717
0.000224523
0.0002202
0.000212289
0.000202923
0.000201282
0.000194599
0.000316302
0.000313147
0.000313199
0.000315939
0.000315172
0.000311783
0.000311611
0.000313565
0.000311376
0.000307199
0.000306903
0.000308453
0.000305369
0.000300742
0.000300362
0.000301718
0.000298032
0.000293109
0.000292681
0.000293819
0.000289707
0.000284515
0.000284014
0.000284674
0.000279807
0.000273806
0.000273108
0.000272592
0.000266759
0.000259757
0.000258808
0.000256625
0.000249501
0.000241219
0.000239924
0.000235236
0.000226572
0.000216384
0.000214592
0.000207374
0.000432772
0.000432138
0.000430843
0.000429135
0.000427138
0.000425555
0.000423932
0.000421426
0.000418903
0.000417359
0.000415756
0.00041291
0.000410116
0.000408753
0.000407083
0.000403902
0.000400791
0.000399581
0.000397785
0.000394154
0.000390576
0.000389447
0.000387457
0.000383055
0.000378546
0.000377181
0.000374824
0.000369078
0.000363089
0.000361299
0.000358405
0.000350659
0.000342464
0.000340032
0.000336364
0.000325658
0.000314056
0.000310828
0.000306867
0.00029143
0.000454126
0.000453254
0.000452003
0.000450452
0.000448446
0.000446742
0.000445117
0.000442689
0.00044005
0.000438316
0.000436672
0.000433867
0.000430898
0.000429313
0.000427574
0.000424406
0.00042107
0.000419607
0.00041771
0.000414056
0.000410195
0.000408776
0.000406644
0.000402163
0.000397309
0.000395588
0.000393041
0.000387136
0.000380713
0.000378469
0.000375309
0.000367299
0.000358542
0.000355503
0.000351462
0.000340352
0.000328023
0.000323943
0.00031944
0.000303432
0.00037041
0.000366129
0.000366189
0.000369846
0.000368984
0.000364872
0.000364705
0.000367504
0.000365008
0.000359835
0.000359596
0.000361957
0.000358294
0.000352529
0.000352082
0.000354151
0.000349631
0.000343435
0.000342921
0.000344611
0.000339433
0.000332882
0.000332254
0.000333317
0.000327317
0.000319915
0.000319045
0.000318616
0.000311419
0.000302849
0.000301654
0.000299081
0.000290358
0.00028033
0.000278724
0.000273055
0.000262597
0.000250491
0.000248284
0.000239575
0.000394162
0.000389077
0.000389209
0.000393557
0.000392618
0.00038796
0.000387777
0.000391265
0.000388591
0.000382864
0.000382602
0.000385451
0.000381608
0.00037523
0.00037478
0.000377307
0.000372378
0.000365549
0.000364989
0.000367074
0.000361399
0.000354118
0.000353444
0.000354839
0.000348294
0.000340157
0.000339229
0.000338963
0.000331136
0.000321766
0.000320486
0.000317856
0.000308371
0.000297486
0.000295759
0.000289748
0.00027845
0.000265408
0.000263029
0.000253797
0.00053453
0.000534062
0.000532818
0.000531156
0.00052917
0.000527602
0.000525821
0.000523068
0.000520207
0.000518426
0.00051648
0.000513104
0.000509718
0.00050796
0.000505811
0.000501899
0.000498018
0.000496319
0.000493886
0.000489346
0.000484818
0.000483112
0.000480295
0.000474801
0.000469131
0.000467046
0.000463627
0.000456521
0.000449073
0.000446361
0.00044204
0.000432586
0.00042253
0.000418864
0.000413235
0.000400372
0.000386344
0.000381367
0.000374672
0.000356485
0.000558205
0.000557429
0.000556209
0.000554719
0.000552717
0.000551017
0.000549244
0.000546609
0.000543642
0.000541664
0.000539696
0.000536396
0.000532833
0.000530843
0.00052864
0.000524769
0.000520661
0.000518699
0.000516184
0.000511643
0.000506833
0.000504828
0.000501885
0.000496333
0.000490313
0.000487867
0.000484271
0.000477019
0.000469127
0.000465966
0.000461393
0.000451674
0.000441049
0.000436794
0.000430792
0.000417509
0.00040275
0.000396939
0.000389682
0.000370889
0.000453589
0.000447587
0.000447535
0.000452816
0.000451925
0.000446138
0.000445928
0.000450629
0.000447614
0.000440878
0.000440642
0.000444708
0.000440032
0.000432515
0.000431897
0.000435461
0.000429773
0.000421556
0.000420809
0.000423714
0.000416898
0.000408043
0.000407237
0.00040922
0.000401387
0.00039167
0.00039057
0.00039052
0.000381154
0.000370078
0.000368539
0.000365521
0.000354252
0.000341526
0.000339445
0.000332294
0.000319023
0.000303964
0.00030109
0.000290166
0.00047917
0.000472454
0.000472384
0.000478301
0.000477131
0.000470917
0.000470692
0.000476226
0.000472983
0.00046573
0.000465255
0.000470297
0.000465207
0.000456801
0.000456343
0.000460727
0.000454592
0.000445476
0.000444686
0.000448294
0.000440905
0.000431219
0.000430361
0.000432914
0.000424432
0.000413818
0.000412666
0.000413002
0.000402882
0.000390875
0.000389243
0.000386324
0.000374221
0.000360515
0.000358307
0.000350909
0.000336709
0.000320613
0.000317552
0.000306145
0.0006456
0.000645243
0.000644011
0.00064237
0.000640369
0.00063885
0.000636949
0.000633999
0.00063088
0.000628934
0.000626691
0.000622842
0.000618935
0.000616838
0.000614256
0.000609639
0.000605003
0.000602835
0.00059981
0.000594363
0.00058889
0.000586603
0.000582973
0.000576349
0.000569484
0.000566653
0.000562153
0.000553629
0.000544679
0.000540993
0.000535203
0.000523967
0.000511996
0.000507003
0.000499305
0.000484174
0.000467646
0.000460738
0.000451058
0.000429936
0.000671689
0.00067095
0.000669732
0.000668281
0.000666264
0.000664594
0.000662709
0.000659908
0.000656683
0.000654531
0.00065228
0.000648543
0.000644454
0.000642117
0.000639496
0.000634954
0.000630084
0.000627643
0.000624554
0.000619146
0.000613377
0.000610794
0.000607063
0.000600406
0.000593186
0.000589999
0.000585345
0.00057669
0.000567283
0.000563168
0.000557152
0.000545651
0.000533109
0.000527561
0.000519515
0.000503951
0.000486702
0.000479018
0.000468789
0.000447038
0.000544486
0.000535982
0.000535889
0.00054368
0.000542559
0.000534735
0.000534476
0.000541594
0.000538023
0.000529238
0.000528926
0.000535383
0.000529533
0.000519831
0.000519271
0.000524833
0.000517389
0.000506867
0.0005061
0.000510945
0.000502217
0.000490991
0.000489936
0.000493356
0.000483409
0.000471075
0.000469677
0.00047033
0.000458527
0.000444759
0.000442792
0.000439482
0.000425432
0.000409878
0.00040724
0.000398582
0.000382264
0.000364203
0.000360561
0.000347261
0.000572117
0.000562452
0.000562616
0.000570932
0.000569743
0.000561119
0.000560839
0.000569027
0.000565219
0.000555561
0.000554947
0.000562964
0.000556662
0.000546019
0.000545143
0.000552097
0.000544317
0.000532502
0.000531916
0.000537745
0.000528364
0.00051611
0.000515013
0.000519262
0.000508602
0.00049515
0.000493719
0.00049499
0.000482368
0.000467444
0.000465399
0.000462357
0.000447389
0.00043076
0.000427975
0.000419167
0.000401915
0.000382739
0.000378897
0.000365182
0.000766158
0.000765906
0.000764668
0.000763008
0.000760982
0.000759508
0.000757505
0.000754381
0.000751046
0.000748991
0.000746496
0.000742235
0.000737876
0.000735509
0.000732531
0.000727277
0.000721963
0.000719383
0.000715795
0.000709485
0.000703088
0.000700242
0.000695856
0.000688102
0.00068005
0.000676487
0.000670946
0.000661005
0.000650546
0.000645889
0.000638659
0.000625625
0.000611731
0.000605386
0.000595625
0.000578193
0.000559155
0.000550242
0.000537496
0.000513345
0.000794742
0.000794036
0.000792807
0.000791347
0.000789301
0.000787671
0.000785683
0.000782734
0.000779292
0.00077702
0.000774523
0.000770407
0.000765861
0.000763241
0.000760251
0.000755104
0.000749543
0.000746686
0.00074306
0.000736816
0.000730115
0.000726969
0.00072252
0.000714754
0.000706334
0.00070243
0.000696766
0.000686697
0.000675783
0.000670718
0.000663293
0.000649993
0.000635534
0.000628682
0.000618614
0.000600743
0.000580997
0.000571394
0.00055815
0.000533366
0.000643095
0.000631561
0.000631734
0.000641986
0.000640585
0.000630337
0.000630005
0.000640149
0.000636042
0.00062429
0.000623887
0.000633447
0.000626694
0.000614094
0.000613665
0.000622518
0.000613547
0.000599866
0.00059914
0.000606741
0.000595745
0.000581495
0.000580467
0.000585839
0.000573362
0.000558354
0.000556561
0.000558193
0.000543668
0.00052697
0.000524528
0.000521023
0.000503934
0.000485548
0.000482296
0.000471987
0.000452506
0.00043163
0.000427122
0.000411302
0.000672552
0.000659614
0.000659437
0.000671361
0.000669498
0.000658285
0.00065794
0.000669779
0.000665065
0.00065226
0.000651839
0.000663365
0.000655797
0.000642101
0.000641638
0.000651627
0.000642368
0.000627488
0.00062637
0.000635571
0.000624059
0.000608566
0.000607439
0.000614066
0.00060101
0.000584295
0.000582543
0.000585028
0.000569504
0.000551488
0.000548962
0.000545959
0.000527829
0.000508209
0.000504825
0.000494508
0.000474076
0.000452014
0.000447293
0.0004312
0.000896264
0.00089613
0.000894872
0.000893179
0.000891111
0.000889673
0.000887565
0.00088428
0.000880744
0.00087863
0.000875908
0.000871291
0.000866525
0.000863958
0.000860621
0.000854792
0.000848856
0.000845947
0.000841864
0.000834743
0.000827485
0.000824141
0.000819064
0.00081022
0.000801024
0.000796778
0.000790267
0.00077895
0.000767052
0.000761481
0.000752875
0.000738095
0.000722341
0.000714701
0.000702952
0.000683271
0.000661794
0.000650909
0.000635167
0.000608018
0.000927416
0.000926754
0.000925505
0.000924015
0.00092191
0.000920305
0.000918227
0.000915121
0.000911466
0.000909146
0.000906429
0.000901961
0.000897006
0.000894201
0.000890852
0.000885149
0.000878964
0.000875785
0.000871686
0.000864642
0.00085708
0.000853449
0.000848335
0.000839482
0.000829911
0.000825344
0.000818735
0.000807296
0.000794931
0.000788988
0.000780236
0.000765175
0.000748853
0.00074077
0.000728778
0.000708645
0.000686474
0.000675023
0.000658863
0.000631081
0.000749475
0.000733972
0.000734122
0.000748034
0.000746698
0.000732781
0.000732776
0.000747032
0.000741586
0.000727134
0.000726628
0.000739642
0.000731676
0.0007162
0.000715252
0.000727936
0.000717462
0.000700618
0.000699643
0.000710387
0.000697467
0.000680303
0.000679241
0.000686721
0.000671855
0.000652907
0.000650799
0.00065379
0.000636324
0.00061642
0.000613455
0.000609752
0.000589333
0.00056824
0.000564297
0.000552164
0.000529404
0.000506108
0.00050066
0.000482145
0.000780926
0.000763302
0.000763887
0.000779382
0.000777516
0.000762449
0.000762441
0.000778312
0.000772557
0.000756093
0.000755976
0.000771363
0.000762919
0.000745396
0.000744774
0.000759296
0.000747746
0.000729635
0.000728546
0.000741637
0.00072824
0.000708976
0.000707819
0.00071721
0.000700622
0.000680648
0.000678354
0.000682652
0.000663998
0.000642438
0.000639474
0.00063649
0.000615003
0.000592491
0.00058839
0.000576426
0.00055275
0.000528183
0.000522501
0.00050386
0.0010358
0.0010358
0.00103451
0.00103274
0.00103057
0.00102916
0.00102692
0.00102345
0.00101973
0.00101757
0.00101463
0.0010097
0.00100458
0.00100188
0.000998223
0.000991896
0.000985411
0.000982246
0.000977721
0.000969877
0.000961815
0.000958035
0.000952332
0.000942485
0.000932236
0.000927425
0.000920017
0.000907429
0.000894184
0.000887815
0.000877943
0.000861547
0.000844063
0.000835258
0.000821665
0.000799873
0.000776128
0.000763431
0.000744883
0.000714897
0.00106956
0.00106896
0.00106765
0.00106607
0.00106383
0.00106225
0.00106004
0.00105675
0.0010529
0.00105054
0.00104762
0.00104283
0.00103752
0.00103459
0.00103095
0.00102475
0.00101801
0.00101461
0.00101009
0.0010023
0.000993939
0.000989893
0.000984173
0.000974294
0.000963652
0.000958551
0.000951095
0.000938354
0.000924631
0.000917947
0.000907971
0.000891282
0.000873215
0.000864054
0.000850295
0.000828033
0.000803612
0.000790484
0.000771623
0.000741026
0.000863754
0.000844074
0.000844194
0.000862451
0.000859758
0.000842977
0.000842476
0.000861125
0.000855555
0.000836273
0.000835633
0.000853657
0.000844467
0.000824554
0.00082381
0.000841132
0.000828234
0.000808617
0.00080687
0.000822235
0.000807462
0.000786182
0.000784747
0.000794692
0.000776859
0.00075462
0.000752228
0.000755965
0.000735391
0.000712612
0.00070868
0.000704964
0.000680816
0.000657276
0.000652522
0.000638253
0.000612151
0.000587061
0.000580534
0.00055904
0.00089682
0.000874697
0.000874789
0.000895438
0.000893117
0.000874
0.000873455
0.000895071
0.000888673
0.000866957
0.000866785
0.000888183
0.000877454
0.000855622
0.000855315
0.000874839
0.000861712
0.000839244
0.000838287
0.000856056
0.000839915
0.000816308
0.000814736
0.000826911
0.000808066
0.000783158
0.000780969
0.000786656
0.000764509
0.000739669
0.00073615
0.00073314
0.000707936
0.000682722
0.000677828
0.000663899
0.000636935
0.000610472
0.000603749
0.000582242
0.00118442
0.0011844
0.00118295
0.00118099
0.00117863
0.00117715
0.00117475
0.00117108
0.00116713
0.00116497
0.00116184
0.00115665
0.00115123
0.00114847
0.00114454
0.0011378
0.00113085
0.00112751
0.0011226
0.00111411
0.00110534
0.00110122
0.00109494
0.00108423
0.00107306
0.00106779
0.00105958
0.00104589
0.00103147
0.00102445
0.00101345
0.000995611
0.000976604
0.000966822
0.000951587
0.000927929
0.000902176
0.000887927
0.000866876
0.000834369
0.00122073
0.00122
0.00121847
0.00121663
0.00121417
0.00121255
0.00121017
0.00120663
0.00120256
0.00120023
0.00119714
0.00119206
0.00118646
0.00118352
0.00117962
0.00117296
0.00116577
0.00116224
0.00115737
0.0011489
0.00113978
0.00113544
0.00112917
0.00111838
0.0011068
0.0011013
0.00109308
0.00107919
0.00106426
0.00105701
0.00104596
0.00102778
0.00100818
0.000998165
0.00098284
0.000958685
0.000932273
0.000917767
0.000896521
0.000863417
0.000984889
0.000960011
0.000960041
0.000983863
0.000981188
0.000959647
0.000959018
0.0009833
0.000976032
0.000952845
0.000952618
0.000975999
0.00096495
0.000940575
0.000939616
0.000962344
0.000947817
0.000923425
0.000922256
0.000942111
0.000923494
0.000897556
0.000895657
0.000909234
0.000887878
0.00086175
0.000858645
0.000864359
0.000839512
0.00081375
0.000809577
0.000804453
0.000776731
0.00075139
0.000745855
0.00072892
0.000699487
0.000673357
0.000665752
0.000640772
0.00102045
0.000992137
0.000992132
0.00102001
0.00101656
0.000991073
0.000991604
0.00101933
0.00101111
0.000984562
0.000984303
0.0010122
0.000999993
0.000972852
0.000971833
0.00099825
0.000983011
0.000955358
0.000954643
0.000976667
0.000957169
0.000928615
0.000926549
0.000942746
0.000919845
0.000891323
0.000887983
0.000895468
0.000870376
0.000841992
0.000837495
0.00083397
0.000804922
0.000777702
0.000771937
0.00075549
0.000725273
0.000697694
0.000689835
0.000664972
0.00134087
0.00134024
0.00133821
0.00133589
0.0013333
0.00133171
0.00132907
0.00132529
0.00132124
0.00131905
0.00131571
0.00131038
0.00130479
0.00130202
0.00129783
0.00129081
0.00128353
0.00128007
0.00127476
0.00126578
0.00125645
0.0012521
0.00124528
0.00123388
0.00122197
0.00121637
0.00120742
0.00119283
0.00117743
0.00116994
0.0011579
0.0011389
0.00111863
0.0011081
0.00109141
0.00106621
0.00103881
0.00102336
0.00100013
0.000965548
0.00137927
0.00137766
0.00137546
0.00137321
0.00137057
0.00136889
0.00136631
0.00136262
0.00135849
0.00135619
0.0013529
0.00134764
0.0013419
0.00133903
0.00133487
0.00132787
0.00132036
0.00131676
0.00131148
0.00130244
0.00129277
0.00128826
0.00128145
0.00126991
0.00125757
0.00125181
0.00124286
0.00122799
0.00121208
0.00120443
0.00119239
0.00117296
0.00115208
0.00114143
0.00112471
0.00109895
0.0010709
0.00105535
0.00103206
0.000996844
0.00111333
0.00108335
0.00108326
0.0011128
0.00110954
0.00108197
0.00108185
0.00111251
0.0011046
0.00107463
0.00107496
0.00110566
0.00109251
0.0010634
0.00106278
0.00109094
0.00107424
0.00104358
0.00104268
0.00106613
0.00104389
0.00101387
0.00101141
0.00102843
0.00100223
0.000972664
0.000969256
0.000975967
0.000947169
0.000918716
0.000913474
0.00090782
0.00087582
0.000849022
0.000842739
0.000822324
0.000789675
0.000763614
0.000754818
0.00072571
0.00115012
0.00111561
0.00111547
0.00114958
0.00114693
0.00111477
0.00111535
0.00115063
0.0011417
0.0011085
0.00110811
0.0011433
0.00113033
0.00109671
0.00109606
0.00112837
0.00110964
0.00107535
0.00107372
0.00110139
0.00107769
0.00104432
0.00104224
0.00106214
0.00103555
0.00100232
0.000998655