/*--------------------------------*- C++ -*----------------------------------*\
| =========                 |                                                 |
| \\      /  F ield         | OpenFOAM: The Open Source CFD Toolbox           |
|  \\    /   O peration     | Version:  2506                                  |
|   \\  /    A nd           | Website:  www.openfoam.com                      |
|    \\/     M anipulation  |                                                 |
\*---------------------------------------------------------------------------*/
FoamFile
{
    version     2.0;
    format      ascii;
    arch        "LSB;label=32;scalar=64";
    class       volScalarField;
    location    "6000";
    object      omega;
}
// * * * * * * * * * * * * * * * * * * * * * * * * * * * * * * * * * * * * * //

dimensions      [0 0 -1 0 0 0 0];

internalField   nonuniform List<scalar> 
72100
(
3.51399e+06
3.51399e+06
3.51399e+06
3.51399e+06
3.51399e+06
3.51399e+06
3.51399e+06
3.51399e+06
3.51399e+06
3.51399e+06
3.51399e+06
3.51399e+06
3.51399e+06
3.51398e+06
3.51398e+06
3.51398e+06
3.51398e+06
3.51398e+06
3.51398e+06
3.51398e+06
3.51398e+06
3.51398e+06
3.51398e+06
3.51397e+06
3.51397e+06
3.51397e+06
3.51397e+06
3.51397e+06
3.51397e+06
3.51396e+06
3.51396e+06
3.51396e+06
3.51396e+06
3.51396e+06
3.51396e+06
3.51396e+06
3.51396e+06
3.51395e+06
3.51395e+06
3.51395e+06
598327
597678
597701
597747
597764
597795
597801
597777
597777
597792
597796
597786
597786
597785
597788
597797
597799
597780
597784
597817
597825
597783
597788
597853
597867
597799
597805
597913
597940
597839
597846
598006
598048
597895
597906
598112
598131
597952
597891
598105
202458
202303
202312
202343
202335
202287
202268
202230
202183
202105
202081
202039
201979
201874
201844
201803
201731
201596
201563
201526
201443
201273
201235
201206
201111
200901
200861
200848
200745
200488
200444
200461
200353
200041
200005
200054
199948
199623
199522
199678
103923
104005
104024
103915
103829
103758
103728
103500
103320
103170
103122
102855
102629
102410
102347
102051
101778
101483
101406
101085
100758
100373
100281
99936.7
99550.2
99059.8
98952.6
98595.9
98144.9
97531
97408.2
97060.4
96550.6
95814.9
95693.6
95381.7
94887.3
94115.5
93925.6
93886.4
66024.4
66155.8
66193.8
66099.3
66027.4
65969.5
65953.5
65735.7
65545.5
65389.8
65348.6
65081.1
64833.6
64599.2
64538.2
64232
63928.6
63608.4
63527.9
63186
62818.1
62393
62290.4
61914
61470.3
60916.7
60790.2
60383.1
59849.6
59132.3
58977.9
58552.9
57918.9
57010.6
56841.8
56415.2
55733.2
54695.5
54436.7
54262.3
44370.3
44313
44354.4
44373.9
44349.1
44275.2
44275.2
44214.2
44090.8
43933.8
43908.4
43815.2
43644.9
43425.2
43381.1
43264.5
43051.8
42765.1
42702.5
42565.5
42308
41940.4
41856.9
41700
41389.7
40918.3
40810.9
40635.5
40261.4
39650.2
39512.6
39323.6
38867
38067.3
37906.4
37697.7
37160.5
36174.3
35902.1
35840
33991.7
33961.1
34006.5
34064.4
34077.4
34014.1
34016.8
34017.3
33940.8
33795
33769.2
33737.3
33615.3
33409.7
33363.2
33309.2
33148.6
32881.6
32815.2
32743.3
32545.5
32207.9
32120
32031.7
31788.3
31356
31242.1
31136.1
30834.7
30269.4
30121.2
29995
29606.7
28840.1
28656.8
28486.8
27968.7
26952.6
26637.7
26509.7
29640.3
29822.3
29891
29948.1
29992.3
29965.1
29974.5
29976.7
29927.2
29805.4
29780.4
29735.3
29633.3
29444.6
29395.1
29317.5
29173.1
28919.4
28847
28744.5
28562
28239.2
28143.4
28020.2
27788.7
27370
27244.4
27097.6
26801.7
26244.7
26078.8
25900.9
25500.4
24716.2
24500.7
24256.4
23669.8
22565.6
22196.8
21900.3
24368.2
24610.9
24699
24771.8
24831.8
24826
24842.3
24874.7
24860.6
24769.6
24750.8
24743.5
24682.7
24529.5
24485.4
24452.3
24355.8
24144.1
24076.9
24027.1
23902
23630.8
23541
23480.8
23320.4
22967.3
22848.8
22779.6
22575.5
22104.7
21947.3
21866.7
21585.3
20910.1
20700.2
20577
20131.5
19139.2
18770.7
18578.9
19544.7
19731.6
19823.4
19904.2
19962.4
19962.3
19980.9
20033.5
20042.2
19977
19964.9
19993.4
19967.5
19851.7
19816.2
19830.2
19778.5
19615.1
19558.2
19565
19494.1
19281.3
19203.6
19209.6
19117.8
18839
18735.4
18745.9
18631.2
18258.4
18120.5
18140.5
17983.1
17443.5
17256.7
17267.8
16998.9
16180.2
15842.5
15821.5
16694.9
16868.7
16959.7
17033.7
17091.8
17103.2
17123.3
17178.8
17204.1
17163.7
17156.9
17194.1
17191.4
17107
17078.2
17104
17080.5
16954.5
16905.8
16926.7
16888.1
16718.6
16650.3
16673
16620.2
16394.4
16302.5
16334.4
16269.1
15965
15842.5
15893.2
15804.4
15359.3
15191.5
15250.7
15079.4
14383.1
14072.1
14111.7
14940
15145.9
15242.7
15307.9
15369
15398
15422.4
15475
15514.8
15500.2
15500.4
15535.4
15550.5
15494.8
15474
15496.6
15493.1
15398.9
15358.8
15375.7
15358.9
15224.5
15165.2
15183.9
15156.2
14971.6
14890
14919.3
14884.8
14632.7
14523
14576.6
14530.6
14155.5
14003.3
14076.3
13964.3
13357.2
13066.9
13120
12948.6
13145.5
13247.7
13317.7
13378.4
13410.7
13437.8
13491.3
13536.5
13534.5
13540.7
13583.2
13611
13574.7
13561.9
13596.3
13610.7
13541.6
13511
13543.1
13548.6
13444.8
13396.4
13432.8
13433
13286.2
13217.1
13267.2
13267.3
13063
12968.2
13048
13050
12742.1
12608.5
12721.1
12684.8
12172.2
11908.9
12025
11192.8
11353.5
11451.4
11524.3
11581.3
11609.9
11636.7
11689.2
11732.8
11734.6
11744.2
11792.1
11825.1
11800.4
11793.9
11838.8
11863.5
11812.5
11790.8
11837.2
11857.6
11778
11740.7
11794.3
11814
11698.8
11643.4
11713
11738.2
11574.9
11496.6
11598.2
11634.8
11385.5
11273
11416.5
11440.2
11015.5
10785.2
10959.1
10049.1
10196.4
10287
10354.2
10408.2
10438.3
10464.3
10512
10555.8
10564.8
10576.7
10622.9
10660.5
10648.3
10646.8
10692
10724.6
10690.7
10676.2
10724.2
10755
10697
10669
10724.6
10757
10668.9
10625
10697
10737.4
10608.3
10544.5
10648.3
10705
10503.2
10409.5
10559.5
10617.4
10263.7
10063.6
10256.3
9215.05
9365.78
9452.47
9513.29
9566.02
9601.04
9628
9670.34
9715.43
9733.48
9748.57
9790.85
9833.06
9834.06
9837.99
9880.08
9919.83
9902.9
9895.78
9940.98
9981.06
9943.74
9924.92
9977.7
10021
9957.91
9925.31
9994.33
10047.5
9949.51
9899.49
10000.1
10072.8
9912.91
9836.93
9986.81
10069.7
9778.02
9606.11
9804.79
8318.3
8455.01
8537.06
8596.68
8648.18
8683.68
8711.55
8751.66
8795.28
8816
8833.47
8875
8918.34
8925.8
8934.16
8977.45
9021
9014.28
9013.54
9061.62
9108.29
9085.42
9075.04
9132.14
9184.71
9140.78
9118.84
9193.29
9258.77
9186.31
9149.74
9256.63
9346.07
9222.21
9163.66
9322.8
9433.74
9198.07
9054.47
9277.92
7478.43
7586.07
7660.32
7719.27
7768.82
7801.99
7829.99
7869.62
7910.51
7930.02
7948.69
7990.75
8032.97
8042.15
8053.48
8099.09
8143.45
8141.43
8145.37
8197.4
8247.05
8232.6
8228.93
8291.86
8350.15
8319.05
8306.06
8387.71
8461.96
8408.01
8383.16
8498.44
8600.86
8505.12
8462.26
8632.08
8767.24
8577.68
8460.65
8717.82
6755.02
6833.73
6896.99
6952.17
6997.88
7027.38
7053.97
7092.45
7129.95
7147.33
7165.84
7207.52
7247.36
7256.8
7269.6
7316.12
7359.33
7360.01
7366.99
7420.94
7470.62
7461.85
7463.11
7529.28
7589.48
7567.87
7562.01
7647.72
7725.82
7686.23
7671.2
7791.02
7900.05
7826.96
7797.73
7973.19
8123.81
7972.22
7879.39
8169.76
6238.52
6302.46
6355.18
6402.94
6444.6
6472.77
6497.41
6532.44
6568.06
6586.32
6604.2
6642.87
6681.83
6694.18
6707.73
6751.7
6794.99
6800.62
6809.7
6861.34
6911.9
6910.59
6915.53
6979.8
7042.01
7031.02
7030.73
7114.59
7195.62
7170.83
7163.78
7281.48
7394.82
7343.55
7325.83
7499.5
7659.4
7543.24
7471.38
7751.26
5807.46
5862.98
5907.62
5948.58
5986.87
6014.8
6038.44
6070.11
6104.44
6124.36
6142.33
6177.83
6216.38
6232.09
6246.87
6287.94
6331.72
6342.48
6353.98
6402.76
6454.49
6460.47
6469.22
6530.86
6595.34
6594.58
6599.91
6681.2
6765.5
6754.89
6755.79
6870.77
6988.78
6958.3
6952.04
7123.45
7291.92
7209.84
7158.58
7429.21
5340.08
5381.82
5419.82
5457.7
5493.13
5518.58
5541.5
5572.44
5604.57
5622.84
5640.84
5675.73
5712.33
5727.48
5743.24
5784.27
5826.75
5838.37
5851.89
5901.1
5951.96
5960.15
5972.02
6034.38
6098.9
6102.76
6112.9
6195.4
6280.97
6278.23
6286.13
6402.54
6523.49
6506.58
6510.67
6684.02
6860.44
6803.32
6771.03
7043.16
4929.71
4959.94
4991.56
5025.83
5057.79
5080.28
5101.63
5131.37
5161.01
5177.42
5194.68
5228.51
5262.67
5276.85
5292.68
5333
5373.34
5385.13
5399.62
5448.43
5497.29
5506.69
5520.43
5582.35
5645.05
5651.92
5665.29
5747.45
5831.6
5834.39
5847.35
5963.1
6083.14
6076.17
6088.16
6260.45
6438.96
6400.7
6383.95
6655.71
4624.11
4650.74
4677.07
4706.12
4734.8
4755.93
4775.45
4802.31
4830.33
4846.92
4863.23
4894.34
4927.25
4942.57
4958.09
4995.73
5035.15
5049.11
5064.02
5110.09
5158.18
5170.86
5185.74
5244.71
5306.77
5318.58
5334.19
5413.16
5496.79
5506.86
5523.57
5635.61
5755.17
5759.48
5777.63
5945.67
6124.98
6106.37
6102.42
6369.06
4353.72
4378.76
4401.2
4425.63
4451.47
4471.78
4490.07
4514.19
4540.83
4557.95
4573.83
4602.26
4634.13
4650.79
4666.47
4701.39
4740.11
4756.39
4772.13
4815.4
4863
4879.07
4895.48
4951.36
5013.11
5029.9
5048.12
5123.81
5207.37
5224.82
5245.71
5354.04
5473.81
5489.65
5514.49
5678.5
5859.22
5860.98
5870.39
6131.88
4055.82
4074.54
4093.78
4116.36
4139.87
4157.89
4175.24
4198.73
4223.54
4238.95
4254.46
4282.23
4312.07
4327.35
4343.12
4377.45
4414.17
4429.69
4446.12
4488.93
4534.66
4550.61
4568.33
4623.56
4683.26
4700.87
4721.34
4796.18
4877.83
4897.8
4922.39
5029.47
5147.57
5169.12
5200.09
5362.28
5542.85
5557.4
5579.23
5839.48
3792.66
3806.39
3822.72
3843.32
3864.47
3880.26
3896.24
3918.74
3941.68
3955.51
3970.23
3997
4024.77
4038.79
4054.09
4087.41
4121.93
4136.63
4153.04
4194.84
4238.27
4253.92
4272.07
4326.03
4383.02
4400.91
4422.45
4495.62
4574.15
4595.52
4622.23
4726.9
4841.33
4866.46
4901.33
5059.92
5236.87
5259.93
5290.85
5547.3
3591.31
3604.81
3618.81
3636.31
3655.35
3670.18
3684.68
3704.89
3726.53
3740.3
3754.06
3778.58
3805.19
3819.61
3834.23
3865.16
3898.56
3914.17
3930.22
3969.47
4011.75
4028.88
4047.02
4098.08
4153.67
4173.81
4195.77
4265.59
4342.38
4367.18
4395.09
4495.71
4607.82
4638.56
4675.99
4829.52
5003.65
5037.22
5074.96
5325.29
3406.63
3420.39
3432.69
3447.46
3464.6
3478.77
3492.22
3510.25
3530.68
3544.53
3557.72
3580.06
3605.58
3620.48
3634.79
3663.36
3695.71
3712.29
3728.36
3765.05
3806.28
3824.96
3843.5
3891.65
3946
3968.46
3991.32
4057.76
4133.05
4161.49
4191.14
4287.73
4397.99
4434.8
4475.5
4624.18
4796.15
4841.33
4886.76
5131
3201.62
3211.74
3222.58
3236.58
3252.21
3264.59
3277.2
3294.82
3313.79
3326.1
3338.82
3360.68
3384.44
3397.84
3411.87
3439.82
3470.17
3485.4
3501.48
3537.43
3576.49
3594.13
3613.03
3660.18
3711.96
3733.62
3757.26
3822.13
3894.38
3922.68
3953.9
4048.12
4154.76
4193
4236.75
4381.85
4549.86
4600.49
4653.18
4893.02
3019.95
3027.43
3036.9
3049.97
3064.16
3074.99
3086.58
3103.49
3121.06
3132.12
3144.1
3165.19
3187.32
3199.54
3212.96
3239.97
3268.41
3282.57
3298.19
3333.04
3369.92
3386.67
3405.34
3451.07
3500.18
3521.07
3544.67
3607.53
3676.38
3704.21
3735.83
3827.08
3929.23
3967.86
4012.92
4153.46
4315.63
4368.98
4426.15
4659.78
2878.28
2886.42
2894.78
2905.97
2918.9
2929.21
2939.72
2954.85
2971.44
2982.41
2993.55
3012.81
3033.99
3046.35
3059.03
3084.01
3111.43
3125.95
3140.91
3173.49
3209.21
3226.61
3244.73
3287.84
3335.47
3357.3
3380.46
3440.16
3506.98
3536.28
3567.68
3654.95
3754.21
3795.33
3840.7
3976.03
4133.95
4192.37
4252.23
4478.73
2745.12
2753.91
2761.49
2770.97
2782.73
2792.66
2802.41
2815.85
2831.47
2842.4
2852.99
2870.5
2890.71
2903.22
2915.45
2938.45
2964.81
2979.68
2994.31
3024.64
3059.17
3077.21
3095.16
3135.66
3181.8
3204.61
3227.76
3284.28
3349.11
3380.01
3411.73
3495.02
3591.54
3635.52
3681.92
3812.12
3966.17
4030.64
4094.1
4313.56
2596.68
2602.89
2609.72
2619.03
2629.84
2638.45
2647.6
2660.83
2675.32
2684.93
2695.09
2712.3
2731.09
2742.22
2754.07
2776.58
2801.18
2814.62
2828.96
2858.57
2891.01
2907.66
2925.47
2964.94
3008.55
3029.96
3053.11
3107.94
3169.53
3199.09
3231.13
3311.7
3403.95
3447.11
3494.54
3620.4
3768.83
3834.35
3901.35
4114.51
2464.8
2469.32
2475.42
2484.36
2494.29
2501.85
2510.29
2523.05
2536.53
2545.15
2554.7
2571.33
2588.9
2599.02
2610.28
2632.04
2655.09
2667.48
2681.24
2709.86
2740.41
2756.01
2773.28
2811.43
2852.68
2872.97
2895.58
2948.47
3006.91
3035.25
3066.81
3144.39
3232.22
3274.22
3321.4
3442.52
3584.52
3649.56
3717.92
3923.75
2360.46
2365.83
2371.34
2379.02
2388.2
2395.55
2403.25
2414.63
2427.41
2435.98
2444.84
2459.97
2476.84
2487.02
2497.6
2517.66
2539.87
2552.4
2565.46
2592.12
2621.65
2637.49
2654.01
2689.87
2729.76
2750.4
2772.19
2822.26
2878.77
2907.6
2938.23
3012.18
3097.12
3139.9
3186.13
3302.25
3439.65
3506.53
3574.89
3773.26
2260.67
2266.7
2271.82
2278.36
2286.8
2293.97
2301.14
2311.23
2323.26
2331.77
2340.18
2353.89
2369.97
2380.2
2390.33
2408.75
2430.02
2442.66
2455.28
2480.02
2508.41
2524.44
2540.54
2574.11
2612.54
2633.49
2654.85
2702.08
2756.57
2785.91
2816.13
2886.38
2968.38
3012.18
3058.11
3169.23
3302.11
3371.54
3440.77
3631.71
2149.07
2153.14
2157.8
2164.41
2172.24
2178.39
2185.13
2195.21
2206.39
2213.83
2221.88
2235.47
2250.4
2259.45
2269.19
2287.29
2307.14
2318.46
2330.68
2354.83
2381.39
2395.98
2411.7
2444.34
2480.5
2499.88
2520.88
2566.55
2618.01
2645.59
2675.47
2743.06
2820.84
2862.77
2908.53
3015.19
3142
3209.99
3280.23
3464.07
2049.69
2052.62
2056.83
2063.27
2070.54
2075.97
2082.21
2092.02
2102.46
2109.16
2116.72
2129.93
2143.91
2152.14
2161.38
2178.91
2197.56
2207.99
2219.62
2242.95
2267.96
2281.52
2296.62
2328.12
2362.28
2380.51
2400.79
2444.74
2493.47
2519.63
2548.64
2613.52
2687.31
2727.46
2772.17
2874.34
2994.96
3060.83
3130.48
3306.79
1970.17
1973.99
1977.85
1983.36
1990.16
1995.56
2001.29
2010.01
2019.96
2026.67
2033.7
2045.68
2059.14
2067.43
2076.09
2092.21
2110.23
2120.73
2131.7
2153.37
2177.55
2191.18
2205.5
2235.02
2268.04
2286.33
2305.68
2347.21
2394.27
2420.43
2448.27
2509.96
2581.14
2621.21
2664.37
2762
2878.23
2944.11
3012.16
3181.23
1893.15
1897.6
1901.24
1905.91
1912.19
1917.56
1922.94
1930.64
1940.03
1946.74
1953.41
1964.23
1977.07
1985.36
1993.65
2008.42
2025.65
2036.17
2046.7
2066.76
2089.95
2103.57
2117.4
2144.95
2176.65
2194.93
2213.7
2252.77
2297.98
2324.13
2351.23
2409.65
2478.04
2518.14
2560.33
2653.34
2765.07
2831.42
2898.68
3060.51
1806.86
1809.69
1813.02
1817.91
1823.78
1828.33
1833.4
1841.23
1849.97
1855.79
1862.17
1873
1884.94
1892.23
1900.18
1914.78
1930.8
1940.17
1950.34
1969.98
1991.63
2003.93
2017.31
2044.11
2073.84
2090.61
2108.87
2146.6
2189.14
2213.48
2239.94
2295.98
2360.53
2398.41
2439.8
2528.64
2634.53
2698.24
2764.96
2919.67
1729.84
1731.79
1734.83
1739.68
1745.19
1749.2
1753.93
1761.62
1769.82
1775.07
1781.07
1791.67
1802.88
1809.52
1817.04
1831.23
1846.3
1854.91
1864.6
1883.61
1904
1915.42
1928.2
1954.06
1982.15
1997.85
2015.38
2051.66
2091.92
2114.88
2140.38
2194.08
2255.21
2291.18
2331.2
2416.04
2516.39
2577.32
2642.4
2789.97
1667.64
1670.44
1673.26
1677.38
1682.59
1686.67
1691.03
1697.83
1705.7
1711.04
1716.62
1726.2
1737.04
1743.77
1750.8
1763.81
1778.4
1787.08
1796.19
1813.8
1833.56
1845
1857.06
1881.24
1908.42
1924.06
1940.69
1974.93
2013.83
2036.6
2060.88
2111.87
2170.81
2206.3
2244.57
2325.47
2421.94
2481.93
2544.64
2685.58
1606.83
1610.2
1612.9
1616.35
1621.2
1625.32
1629.44
1635.42
1642.88
1648.24
1653.56
1662.19
1672.54
1679.29
1686.01
1697.91
1711.87
1720.54
1729.27
1745.53
1764.45
1775.82
1787.4
1809.93
1835.97
1851.49
1867.51
1899.68
1936.96
1959.48
1982.94
2031.14
2087.6
2122.64
2159.68
2236.54
2328.89
2388.22
2449.28
2583.59
1538.59
1540.6
1543.08
1546.79
1551.34
1554.8
1558.7
1564.88
1571.85
1576.45
1581.53
1590.28
1599.92
1605.82
1612.29
1624.15
1637.15
1644.81
1653.22
1669.23
1686.86
1697.06
1708.23
1730.18
1754.55
1768.74
1784.23
1815.29
1850.27
1871.11
1893.86
1940.01
1993.12
2025.97
2061.96
2135.12
2222.22
2278.55
2338.24
2465.94
1477.54
1478.85
1481.12
1484.89
1489.18
1492.22
1495.88
1502.02
1508.6
1512.73
1517.53
1526.15
1535.24
1540.61
1546.76
1558.33
1570.61
1577.64
1585.62
1601.17
1617.81
1627.26
1637.91
1659.12
1682.17
1695.44
1710.27
1740.14
1773.26
1792.87
1814.68
1858.88
1909.14
1940.21
1974.79
2044.52
2126.87
2180.35
2237.98
2359.3
1427.86
1429.98
1432.09
1435.27
1439.36
1442.55
1445.93
1451.34
1457.7
1461.95
1466.42
1474.2
1483.02
1488.5
1494.26
1504.84
1516.77
1523.89
1531.38
1545.76
1561.91
1571.36
1581.38
1601.21
1623.56
1636.76
1650.79
1678.95
1710.99
1730.36
1751.05
1792.99
1841.47
1871.92
1904.79
1971.21
2050.32
2102.46
2157.49
2273.04
1378.96
1381.62
1383.66
1386.29
1390.11
1393.4
1396.62
1401.36
1407.39
1411.73
1416
1422.98
1431.41
1436.94
1442.44
1452.1
1463.53
1470.64
1477.81
1491.07
1506.53
1515.91
1525.51
1543.98
1565.39
1578.42
1591.91
1618.34
1649.01
1668.05
1687.95
1727.56
1773.93
1803.75
1835.37
1898.37
1973.9
2024.89
2077.95
2187.71
1324.05
1325.5
1327.38
1330.33
1333.96
1336.66
1339.75
1344.75
1350.39
1354.09
1358.19
1365.33
1373.2
1378.01
1383.29
1393
1403.66
1409.92
1416.82
1429.94
1444.35
1452.77
1462.01
1480.06
1500.08
1511.92
1524.92
1550.47
1579.21
1596.77
1615.97
1653.86
1697.38
1725.21
1755.76
1815.58
1886.58
1934.66
1986.05
2089.98
1274.79
1275.65
1277.41
1280.45
1283.92
1286.3
1289.22
1294.24
1299.58
1302.91
1306.8
1313.87
1321.33
1325.7
1330.72
1340.25
1350.33
1356.09
1362.65
1375.43
1389.08
1396.88
1405.71
1423.19
1442.15
1453.22
1465.64
1490.24
1517.48
1533.98
1552.36
1588.64
1629.83
1656.1
1685.33
1742.3
1809.35
1854.8
1904.08
2002.57
1234.43
1236.07
1237.73
1240.29
1243.65
1246.2
1248.91
1253.32
1258.52
1262.01
1265.64
1271.99
1279.26
1283.77
1288.46
1297.15
1306.99
1312.82
1318.98
1330.78
1344.08
1351.91
1360.21
1376.56
1394.99
1406.01
1417.72
1440.95
1467.36
1483.6
1500.99
1535.44
1575.24
1600.87
1628.56
1682.82
1747.25
1791.28
1838.06
1931.7
1194.53
1196.69
1198.34
1200.44
1203.61
1206.3
1208.92
1212.75
1217.71
1221.3
1224.78
1230.45
1237.42
1241.98
1246.48
1254.39
1263.81
1269.66
1275.55
1286.43
1299.17
1306.96
1314.91
1330.14
1347.81
1358.67
1369.92
1391.72
1417.01
1432.93
1449.61
1482.14
1520.18
1545.17
1571.71
1623.14
1684.58
1727.32
1772.15
1860.95
1149.72
1150.86
1152.42
1154.87
1157.89
1160.12
1162.64
1166.76
1171.42
1174.44
1177.78
1183.66
1190.17
1194.1
1198.43
1206.45
1215.22
1220.37
1226.03
1236.87
1248.78
1255.75
1263.42
1278.33
1294.85
1304.71
1315.55
1336.62
1360.3
1374.96
1391.01
1422.14
1457.78
1481.05
1506.59
1555.36
1612.98
1653.13
1696.28
1780.12
1109.41
1110.1
1111.6
1114.2
1117.12
1119.09
1121.49
1125.69
1130.14
1132.83
1136.01
1141.88
1148.04
1151.61
1155.74
1163.65
1171.97
1176.7
1182.1
1192.71
1204.02
1210.5
1217.83
1232.3
1247.99
1257.21
1267.58
1287.9
1310.37
1324.15
1339.51
1369.34
1403.1
1425.04
1449.44
1495.87
1550.26
1588.13
1629.34
1708.66
1076.21
1077.68
1079.16
1081.36
1084.23
1086.4
1088.64
1092.31
1096.66
1099.52
1102.48
1107.73
1113.77
1117.48
1121.34
1128.53
1136.69
1141.51
1146.57
1156.36
1167.45
1173.98
1180.88
1194.43
1209.75
1218.93
1228.7
1247.9
1269.76
1283.32
1297.83
1326.19
1358.89
1380.25
1403.31
1447.57
1499.9
1536.45
1575.41
1650.79
1043.31
1045.34
1046.91
1048.75
1051.47
1053.8
1055.98
1059.15
1063.3
1066.27
1069.12
1073.79
1079.57
1083.34
1087.06
1093.58
1101.39
1106.24
1111.11
1120.13
1130.77
1137.28
1143.93
1156.55
1171.24
1180.3
1189.7
1207.74
1228.67
1241.95
1255.87
1282.69
1313.96
1334.72
1356.79
1398.77
1448.68
1483.98
1521.2
1592.65
1006.43
1007.68
1009.26
1011.47
1014.08
1016.01
1018.13
1021.57
1025.45
1027.94
1030.71
1035.58
1040.95
1044.18
1047.77
1054.42
1061.71
1065.97
1070.68
1079.72
1089.64
1095.46
1101.88
1114.29
1128.02
1136.25
1145.32
1162.79
1182.37
1194.61
1208.02
1233.66
1262.95
1282.3
1303.52
1343.3
1390.06
1423.19
1458.9
1526.27
973.229
974.211
975.811
978.195
980.718
982.407
984.46
987.965
991.644
993.872
996.525
1001.4
1006.5
1009.43
1012.86
1019.44
1026.38
1030.31
1034.85
1043.71
1053.15
1058.58
1064.74
1076.82
1089.89
1097.62
1106.31
1123.19
1141.82
1153.36
1166.21
1190.82
1218.59
1236.87
1257.17
1295.08
1339.25
1370.5
1404.57
1468.31
945.868
947.722
949.35
951.339
953.796
955.686
957.601
960.604
964.199
966.618
969.092
973.396
978.403
981.496
984.71
990.666
997.482
1001.57
1005.83
1014.01
1023.3
1028.83
1034.64
1045.94
1058.76
1066.5
1074.72
1090.69
1108.89
1120.28
1132.43
1155.89
1182.89
1200.71
1219.89
1256.12
1298.75
1328.88
1361.06
1421.76
918.987
921.53
923.242
924.77
927.024
929.11
930.994
933.466
936.841
939.434
941.862
945.577
950.334
953.575
956.714
962.03
968.554
972.761
976.924
984.384
993.308
998.895
1004.55
1015.02
1027.33
1035.05
1043.01
1058.01
1075.47
1086.68
1098.41
1120.62
1146.51
1163.89
1182.3
1216.79
1257.54
1286.68
1317.45
1375.26
889.354
891.279
892.874
894.447
896.51
898.333
900.188
902.723
905.852
908.145
910.541
914.28
918.714
921.639
924.727
930.004
936.105
939.947
944.039
951.352
959.695
964.854
970.379
980.552
992.067
999.255
1007.01
1021.45
1037.82
1048.36
1059.73
1080.97
1105.29
1121.71
1139.52
1172.3
1210.64
1238.27
1267.9
1322.95
859.966
860.678
861.986
863.82
865.75
867.109
868.89
871.734
874.664
876.485
878.8
882.821
886.974
889.41
892.411
897.893
903.586
906.885
910.859
918.265
926.037
930.591
935.959
946.047
956.791
963.261
970.773
984.845
1000.13
1009.78
1020.78
1041.18
1063.88
1079.11
1096.29
1127.44
1163.21
1189.02
1217.52
1270.26
833.259
833.407
834.501
836.401
838.227
839.339
841.011
843.933
846.739
848.327
850.534
854.607
858.579
860.787
863.669
869.136
874.581
877.616
881.437
888.746
896.163
900.403
905.573
915.439
925.687
931.764
938.986
952.63
967.189
976.279
986.847
1006.48
1028.01
1042.37
1058.82
1088.57
1122.29
1146.58
1173.81
1225.15
810.958
811.675
812.637
814.113
815.877
817.156
818.662
821.139
823.922
825.69
827.718
831.32
835.282
837.662
840.345
845.305
850.729
853.917
857.493
864.254
871.615
875.957
880.811
890.076
900.203
906.302
913.105
926.051
940.358
949.332
959.299
978.069
999.079
1013.04
1028.55
1057.04
1089.67
1113
1138.64
1186.7
788.813
789.892
790.826
791.909
793.5
794.888
796.335
798.407
801.026
802.907
804.873
808.043
811.827
814.303
816.908
821.403
826.606
829.861
833.331
839.567
846.644
850.999
855.703
864.361
874.096
880.137
886.709
898.928
912.667
921.456
931.048
948.881
969.029
982.575
997.433
1024.57
1055.77
1078.2
1102.64
1147.8
764.022
764.287
765.077
766.414
767.881
768.862
770.244
772.587
775.018
776.485
778.387
781.785
785.29
787.331
789.861
794.525
799.354
802.139
805.507
811.81
818.402
822.244
826.806
835.369
844.449
849.91
856.271
868.153
880.984
889.069
898.336
915.418
934.248
946.882
961.188
986.918
1016.09
1037.15
1060.56
1102.81
741.436
741.321
742.013
743.462
744.859
745.629
746.928
749.365
751.688
752.944
754.76
758.208
761.551
763.372
765.808
770.47
775.078
777.628
780.874
787.101
793.397
796.978
801.374
809.753
818.421
823.553
829.682
841.209
853.434
861.077
869.994
886.429
904.307
916.253
929.967
954.526
982.088
1001.95
1024.29
1064.02
722.517
723.019
723.667
724.78
726.17
727.117
728.271
730.327
732.648
734.078
735.731
738.77
742.119
744.1
746.346
750.572
755.182
757.868
760.888
766.653
772.93
776.603
780.714
788.594
797.198
802.353
808.104
819.071
831.14
838.69
847.08
862.823
880.349
891.973
904.879
928.436
955.229
974.325
995.309
1033.11
703.763
704.654
705.347
706.132
707.39
708.474
709.6
711.288
713.464
715.017
716.629
719.28
722.465
724.545
726.734
730.54
734.953
737.709
740.649
745.954
751.979
755.679
759.67
767.035
775.303
780.422
785.984
796.342
807.948
815.356
823.446
838.424
855.262
866.554
878.936
901.428
927.133
945.505
965.519
1001.61
682.78
682.945
683.539
684.589
685.743
686.476
687.559
689.482
691.493
692.677
694.242
697.097
700.043
701.732
703.857
707.815
711.908
714.252
717.111
722.467
728.064
731.328
735.208
742.485
750.184
754.82
760.224
770.272
781.093
787.929
795.757
810.092
825.82
836.391
848.332
869.681
893.807
911.032
930.218
964.586
663.591
663.401
663.927
665.127
666.24
666.788
667.808
669.836
671.761
672.751
674.246
677.169
679.985
681.476
683.517
687.494
691.41
693.543
696.297
701.607
706.957
709.988
713.735
720.87
728.227
732.586
737.804
747.569
757.878
764.342
771.885
785.688
800.627
810.635
822.108
842.469
865.257
881.567
899.901
932.224
647.466
647.864
648.363
649.286
650.427
651.155
652.05
653.751
655.704
656.86
658.205
660.779
663.626
665.264
667.131
670.738
674.683
676.943
679.481
684.406
689.772
692.886
696.37
703.1
710.443
714.828
719.703
729.02
739.246
745.628
752.705
765.957
780.667
790.408
801.186
820.754
842.873
858.66
875.875
906.27
631.527
632.305
632.867
633.5
634.529
635.411
636.302
637.675
639.499
640.779
642.103
644.328
647.03
648.77
650.597
653.832
657.601
659.939
662.42
666.941
672.089
675.236
678.629
684.915
691.976
696.343
701.072
709.885
719.726
725.997
732.834
745.466
759.624
769.104
779.466
798.287
819.509
834.696
851.132
880.098
613.718
613.827
614.305
615.173
616.122
616.7
617.569
619.165
620.836
621.788
623.073
625.478
627.967
629.365
631.143
634.502
637.983
639.958
642.38
646.944
651.713
654.484
657.788
663.987
670.543
674.498
679.101
687.639
696.806
702.605
709.243
721.323
734.536
743.436
753.459
771.561
791.624
805.626
821.349
849.418
597.361
597.119
597.535
598.556
599.484
599.891
600.723
602.438
604.038
604.819
606.048
608.53
610.908
612.128
613.837
617.228
620.557
622.341
624.674
629.218
633.776
636.343
639.532
645.626
651.884
655.593
660.046
668.349
677.09
682.573
688.982
700.638
713.192
721.619
731.257
748.417
767.364
780.715
795.788
822.213
583.57
583.885
584.277
585.062
586.035
586.611
587.325
588.766
590.413
591.347
592.435
594.622
597.052
598.407
599.948
603.031
606.413
608.308
610.435
614.664
619.268
621.911
624.851
630.616
636.899
640.625
644.76
652.708
661.424
666.839
672.825
684.06
696.498
704.692
713.705
729.893
748.263
761.487
775.689
800.279
570
570.685
571.154
571.672
572.536
573.264
573.992
575.139
576.669
577.729
578.814
580.688
582.986
584.442
585.963
588.718
591.939
593.91
595.995
599.872
604.285
606.967
609.837
615.225
621.268
624.981
629
636.527
644.925
650.257
656.05
666.82
678.854
686.81
695.475
710.974
728.555
741.377
755.009
778.428
554.852
554.923
555.312
556.035
556.826
557.29
558.007
559.35
560.755
561.533
562.596
564.627
566.731
567.892
569.379
572.232
575.19
576.855
578.897
582.787
586.859
589.216
592.024
597.312
602.908
606.277
610.202
617.466
625.267
630.211
635.85
646.245
657.552
664.908
673.276
688.492
705.17
716.698
729.701
752.792
540.87
540.591
540.918
541.794
542.577
542.881
543.565
545.034
546.389
547.008
548.028
550.146
552.161
553.161
554.592
557.485
560.315
561.809
563.782
567.662
571.55
573.719
576.44
581.644
586.979
590.135
593.937
601.008
608.43
613.099
618.553
628.496
639.201
646.238
654.323
668.739
684.477
695.475
707.949
729.701
529.053
529.299
529.601
530.275
531.119
531.576
532.141
533.379
534.798
535.554
536.433
538.307
540.392
541.513
542.778
545.418
548.323
549.91
551.685
555.31
559.267
561.497
563.979
568.922
574.313
577.479
580.982
587.772
595.214
599.816
604.876
614.326
624.847
631.878
639.458
652.87
668.134
679.237
691.005
711.029
517.502
518.106
518.497
518.926
519.662
520.268
520.859
521.826
523.133
524.012
524.902
526.497
528.457
529.681
530.938
533.29
536.048
537.709
539.457
542.779
546.566
548.836
551.264
555.887
561.067
564.23
567.638
574.081
581.267
585.797
590.7
599.765
609.872
616.742
624.067
636.883
651.478
662.316
673.665
692.715
504.615
504.66
504.975
505.579
506.243
506.618
507.212
508.344
509.533
510.175
511.06
512.779
514.568
515.54
516.785
519.21
521.731
523.132
524.857
528.175
531.654
533.652
536.033
540.547
545.326
548.197
551.536
557.744
564.43
568.616
573.398
582.31
591.874
598.016
605.052
617.873
631.785
641.315
652.104
671.166
492.656
492.349
492.6
493.354
494.016
494.241
494.803
496.066
497.218
497.714
498.566
500.378
502.094
502.915
504.121
506.598
509.01
510.255
511.926
515.245
518.562
520.394
522.704
527.148
531.699
534.377
537.616
543.648
549.996
553.949
558.581
567.069
576.109
581.986
588.785
600.917
614.034
623.124
633.483
651.439
482.53
482.717
482.943
483.529
484.266
484.626
485.065
486.13
487.364
487.98
488.689
490.3
492.103
493.027
494.066
496.339
498.844
500.169
501.646
504.76
508.168
510.046
512.123
516.357
520.988
523.67
526.622
532.42
538.786
542.711
546.976
554.892
563.773
569.774
576.146
587.29
600.014
609.346
619.121
635.494
472.724
473.262
473.594
473.953
474.585
475.085
475.557
476.375
477.498
478.234
478.962
480.324
482.007
483.026
484.07
486.088
488.461
489.856
491.32
494.175
497.427
499.344
501.383
505.346
509.795
512.474
515.354
520.894
527.03
530.892
535.025
542.585
551.092
556.986
563.169
573.802
585.952
595.118
604.602
620.167
461.795
461.826
462.087
462.586
463.146
463.45
463.937
464.889
465.897
466.429
467.167
468.627
470.149
470.958
472.003
474.068
476.227
477.406
478.859
481.693
484.668
486.361
488.378
492.229
496.315
498.757
501.592
506.997
512.741
516.222
520.238
527.818
535.905
541.028
546.928
557.712
569.34
577.324
586.349
602.041
451.589
451.259
451.445
452.096
452.655
452.817
453.281
454.364
455.342
455.733
456.444
457.999
459.464
460.136
461.147
463.268
465.33
466.369
467.781
470.622
473.457
475.001
476.964
480.764
484.644
486.915
489.669
494.868
500.296
503.607
507.516
514.729
522.351
527.249
532.951
543.14
554.071
561.636
570.265
585.085
442.935
443.07
443.227
443.74
444.394
444.672
445.005
445.923
446.996
447.489
448.05
449.44
451.007
451.767
452.608
454.562
456.732
457.836
459.054
461.729
464.672
466.253
467.986
471.619
475.606
477.875
480.347
485.234
490.664
494.045
497.643
504.279
511.768
516.865
522.199
531.457
542.056
549.846
557.925
571.387
434.651
435.133
435.409
435.714
436.26
436.671
437.047
437.739
438.701
439.305
439.894
441.06
442.511
443.359
444.219
445.949
447.992
449.161
450.378
452.832
455.634
457.25
458.96
462.373
466.205
468.473
470.892
475.544
480.747
484.087
487.594
493.925
501.083
506.113
511.315
520.146
530.25
537.918
545.788
558.581
425.374
425.392
425.598
426.007
426.473
426.722
427.125
427.925
428.782
429.22
429.831
431.069
432.372
433.049
433.926
435.686
437.533
438.528
439.751
442.172
444.724
446.16
447.867
451.19
454.721
456.77
459.162
463.81
468.713
471.615
474.997
481.448
488.287
492.568
497.523
506.57
516.275
522.979
530.49
543.385
416.605
416.245
416.371
416.927
417.402
417.515
417.901
418.836
419.671
419.981
420.575
421.912
423.166
423.717
424.571
426.398
428.162
429.028
430.226
432.666
435.092
436.392
438.063
441.326
444.673
446.581
448.918
453.383
458.004
460.764
464.06
470.188
476.617
480.703
485.48
494.029
503.128
509.438
516.613
528.798
409.141
409.239
409.337
409.789
410.378
410.595
410.841
411.639
412.587