/*--------------------------------*- C++ -*----------------------------------*\
| =========                 |                                                 |
| \\      /  F ield         | OpenFOAM: The Open Source CFD Toolbox           |
|  \\    /   O peration     | Version:  2506                                  |
|   \\  /    A nd           | Website:  www.openfoam.com                      |
|    \\/     M anipulation  |                                                 |
\*---------------------------------------------------------------------------*/
FoamFile
{
    version     2.0;
    format      ascii;
    arch        "LSB;label=32;scalar=64";
    class       surfaceScalarField;
    location    "6000";
    object      phi;
}
// * * * * * * * * * * * * * * * * * * * * * * * * * * * * * * * * * * * * * //

dimensions      [0 3 -1 0 0 0 0];

oriented        oriented;

internalField   nonuniform List<scalar> 
143613
(
2.28637e-06
-3.03447e-07
2.13473e-06
-4.66917e-08
2.25038e-06
-2.08508e-08
2.34692e-06
2.42487e-08
2.19951e-06
2.83129e-08
2.07253e-06
2.86396e-08
2.17567e-06
2.87649e-08
2.25258e-06
3.34542e-08
2.10075e-06
3.58921e-08
1.97703e-06
3.56579e-08
2.07293e-06
3.58158e-08
2.13524e-06
4.11233e-08
1.98024e-06
4.38204e-08
1.85967e-06
4.33938e-08
1.94564e-06
4.36348e-08
1.99208e-06
5.0044e-08
1.83475e-06
5.33333e-08
1.7167e-06
5.29462e-08
1.78926e-06
5.33009e-08
1.8171e-06
6.13811e-08
1.65728e-06
6.57628e-08
1.54082e-06
6.54726e-08
1.5956e-06
6.59273e-08
1.60091e-06
7.58714e-08
1.43852e-06
8.13754e-08
1.32326e-06
8.13201e-08
1.35518e-06
8.1886e-08
1.33228e-06
9.47529e-08
1.16582e-06
1.01908e-07
1.05105e-06
1.02092e-07
1.05439e-06
1.02638e-07
9.95543e-07
1.18065e-07
8.25259e-07
1.27075e-07
7.13695e-07
1.2457e-07
6.80967e-07
1.24857e-07
5.85995e-07
1.43087e-07
4.16161e-07
1.43924e-07
3.07536e-07
1.40784e-07
2.64154e-07
1.38868e-07
1.36521e-07
1.22185e-07
3.90113e-06
-3.58285e-07
3.90785e-06
-6.3119e-08
3.8965e-06
-2.7453e-08
3.86504e-06
3.4414e-08
3.82629e-06
4.11441e-08
3.80375e-06
4.34417e-08
3.77283e-06
4.3648e-08
3.72054e-06
4.87774e-08
3.67009e-06
5.2458e-08
3.64017e-06
5.42365e-08
3.6022e-06
5.44417e-08
3.53805e-06
6.01237e-08
3.47509e-06
6.42066e-08
3.43743e-06
6.61298e-08
3.39184e-06
6.6405e-08
3.3141e-06
7.32895e-08
3.23607e-06
7.82748e-08
3.1891e-06
8.07834e-08
3.13426e-06
8.11886e-08
3.03924e-06
9.00225e-08
2.94138e-06
9.66444e-08
2.88221e-06
9.99769e-08
2.81551e-06
1.00502e-07
2.69835e-06
1.11433e-07
2.57528e-06
1.19733e-07
2.50075e-06
1.24276e-07
2.41893e-06
1.2498e-07
2.27283e-06
1.39379e-07
2.11596e-06
1.5019e-07
2.02077e-06
1.56135e-07
1.91981e-06
1.56875e-07
1.73609e-06
1.74185e-07
1.53821e-06
1.87526e-07
1.41987e-06
1.91149e-07
1.29361e-06
1.91546e-07
1.07561e-06
2.11283e-07
8.36595e-07
2.14663e-07
6.89327e-07
2.15519e-07
5.76369e-07
2.12905e-07
2.07982e-07
3.1544e-07
4.01259e-06
-4.51428e-07
4.00957e-06
-7.78333e-08
4.00853e-06
-3.22357e-08
3.98566e-06
5.6026e-08
3.93537e-06
6.91168e-08
3.90293e-06
7.44221e-08
3.88295e-06
7.48889e-08
3.83852e-06
8.28922e-08
3.77508e-06
8.93702e-08
3.73525e-06
9.3671e-08
3.70898e-06
9.40697e-08
3.65221e-06
1.02772e-07
3.57501e-06
1.09895e-07
3.5274e-06
1.14674e-07
3.49392e-06
1.15161e-07
3.42303e-06
1.25703e-07
3.32978e-06
1.34373e-07
3.27275e-06
1.40464e-07
3.2299e-06
1.41165e-07
3.14111e-06
1.54825e-07
3.02737e-06
1.66336e-07
2.95799e-06
1.74243e-07
2.90253e-06
1.75151e-07
2.7907e-06
1.92143e-07
2.65155e-06
2.06599e-07
2.56668e-06
2.1715e-07
2.49451e-06
2.18413e-07
2.35243e-06
2.41035e-07
2.17975e-06
2.60065e-07
2.07421e-06
2.73699e-07
1.98035e-06
2.75141e-07
1.7986e-06
3.02785e-07
1.58585e-06
3.26056e-07
1.45759e-06
3.3765e-07
1.33476e-06
3.3856e-07
1.11593e-06
3.6885e-07
8.63897e-07
3.79591e-07
7.07792e-07
3.82343e-07
5.951e-07
3.78784e-07
3.78039e-07
3.28711e-07
6.88742e-06
-6.13018e-07
6.89187e-06
-1.01637e-07
6.87891e-06
-3.74973e-08
6.83439e-06
1.06444e-07
6.76785e-06
1.36048e-07
6.7268e-06
1.50239e-07
6.68364e-06
1.51483e-07
6.60355e-06
1.66081e-07
6.51442e-06
1.7983e-07
6.46065e-06
1.91403e-07
6.40619e-06
1.92317e-07
6.30564e-06
2.07483e-07
6.19422e-06
2.22528e-07
6.12728e-06
2.35608e-07
6.06042e-06
2.36641e-07
5.93665e-06
2.54821e-07
5.79899e-06
2.73156e-07
5.71625e-06
2.8969e-07
5.63385e-06
2.9114e-07
5.4806e-06
3.14894e-07
5.30892e-06
3.39278e-07
5.20544e-06
3.60585e-07
5.10248e-06
3.62465e-07
4.91119e-06
3.92061e-07
4.69656e-06
4.22838e-07
4.56686e-06
4.5114e-07
4.43683e-06
4.53845e-07
4.19505e-06
4.9384e-07
3.92263e-06
5.34784e-07
3.75732e-06
5.71574e-07
3.5917e-06
5.74894e-07
3.2827e-06
6.24776e-07
2.93852e-06
6.74742e-07
2.73184e-06
7.1251e-07
2.51822e-06
7.14936e-07
2.14161e-06
7.67571e-07
1.72161e-06
8.01009e-07
1.46318e-06
8.15703e-07
1.25684e-06
8.10444e-07
8.19954e-07
7.97416e-07
9.7982e-06
-7.27616e-07
9.81231e-06
-1.13324e-07
9.7855e-06
-3.38916e-08
9.72149e-06
1.67494e-07
9.64918e-06
2.20628e-07
9.60647e-06
2.48606e-07
9.53984e-06
2.512e-07
9.42672e-06
2.75203e-07
9.32188e-06
2.99262e-07
9.2611e-06
3.21299e-07
9.17809e-06
3.22995e-07
9.03676e-06
3.4679e-07
8.90191e-06
3.72866e-07
8.82304e-06
3.97833e-07
8.72261e-06
3.99665e-07
8.54968e-06
4.27871e-07
8.37949e-06
4.59635e-07
8.27904e-06
4.91161e-07
8.15725e-06
4.937e-07
7.94424e-06
5.30704e-07
7.72782e-06
5.73007e-07
7.59899e-06
6.13648e-07
7.44926e-06
6.16942e-07
7.18435e-06
6.6311e-07
6.90867e-06
7.16886e-07
6.74348e-06
7.71199e-07
6.55695e-06
7.76048e-07
6.22227e-06
8.39216e-07
5.86522e-06
9.11607e-07
5.64981e-06
9.83165e-07
5.41401e-06
9.89442e-07
4.98457e-06
1.07e-06
4.52239e-06
1.1595e-06
4.24526e-06
1.23965e-06
3.94184e-06
1.24493e-06
3.40925e-06
1.3297e-06
2.82754e-06
1.40297e-06
2.47094e-06
1.44279e-06
2.16111e-06
1.4369e-06
1.46928e-06
1.50406e-06
1.25466e-05
-7.75031e-07
1.2565e-05
-1.16138e-07
1.25302e-05
-2.9813e-08
1.2456e-05
2.00562e-07
1.23816e-05
2.67415e-07
1.23383e-05
3.03196e-07
1.22559e-05
3.06638e-07
1.21201e-05
3.36895e-07
1.20037e-05
3.66859e-07
1.19376e-05
3.94308e-07
1.18338e-05
3.96479e-07
1.16624e-05
4.26241e-07
1.15098e-05
4.58459e-07
1.14217e-05
4.89437e-07
1.12958e-05
4.91754e-07
1.10854e-05
5.27075e-07
1.08904e-05
5.66212e-07
1.07765e-05
6.05295e-07
1.06239e-05
6.08494e-07
1.03642e-05
6.54949e-07
1.01137e-05
7.07056e-07
9.96585e-06
7.5742e-07
9.77857e-06
7.61573e-07
9.45497e-06
8.19753e-07
9.13251e-06
8.86193e-07
8.94054e-06
9.53686e-07
8.70736e-06
9.59843e-07
8.29684e-06
1.03974e-06
7.87375e-06
1.12977e-06
7.61979e-06
1.21904e-06
7.32417e-06
1.22716e-06
6.79328e-06
1.33019e-06
6.23523e-06
1.44249e-06
5.90115e-06
1.54437e-06
5.51804e-06
1.55157e-06
4.84626e-06
1.66152e-06
4.1236e-06
1.75971e-06
3.68179e-06
1.81057e-06
3.2688e-06
1.80481e-06
1.85987e-06
2.42461e-06
1.28793e-05
-8.0427e-07
1.28876e-05
-1.13959e-07
1.28632e-05
-2.2454e-08
1.27971e-05
2.33338e-07
1.27097e-05
3.15888e-07
1.26553e-05
3.61249e-07
1.25835e-05
3.65817e-07
1.24543e-05
4.03947e-07
1.23223e-05
4.40966e-07
1.22445e-05
4.74565e-07
1.21522e-05
4.77326e-07
1.19866e-05
5.1428e-07
1.1816e-05
5.53596e-07
1.17156e-05
5.91235e-07
1.16018e-05
5.94139e-07
1.13963e-05
6.37919e-07
1.11812e-05
6.85491e-07
1.10541e-05
7.3288e-07
1.09136e-05
7.36864e-07
1.06579e-05
7.9435e-07
1.03851e-05
8.57571e-07
1.02228e-05
9.18731e-07
1.00471e-05
9.239e-07
9.72608e-06
9.96281e-07
9.37915e-06
1.07736e-06
9.17143e-06
1.15974e-06
8.9483e-06
1.16746e-06
8.53835e-06
1.26724e-06
8.0885e-06
1.37794e-06
7.81694e-06
1.48778e-06
7.52867e-06
1.49822e-06
6.99521e-06
1.62861e-06
6.40802e-06
1.76869e-06
6.05429e-06
1.89759e-06
5.67411e-06
1.90757e-06
4.99537e-06
2.04998e-06
4.24142e-06
2.18213e-06
3.7779e-06
2.25135e-06
3.36343e-06
2.24713e-06
2.33574e-06
2.50478e-06
1.53964e-05
-8.49553e-07
1.5403e-05
-1.05752e-07
1.53762e-05
-4.99055e-09
1.53081e-05
2.98194e-07
1.52202e-05
4.13621e-07
1.51647e-05
4.80941e-07
1.5085e-05
4.88074e-07
1.49433e-05
5.42149e-07
1.48017e-05
5.94832e-07
1.47183e-05
6.43198e-07
1.46133e-05
6.47267e-07
1.44282e-05
6.97574e-07
1.42427e-05
7.52648e-07
1.41336e-05
8.06377e-07
1.40029e-05
8.10534e-07
1.37715e-05
8.69367e-07
1.3536e-05
9.35738e-07
1.3397e-05
1.0031e-06
1.32352e-05
1.00868e-06
1.29463e-05
1.08541e-06
1.26466e-05
1.17327e-06
1.24688e-05
1.26043e-06
1.22665e-05
1.26772e-06
1.1903e-05
1.3648e-06
1.15199e-05
1.47846e-06
1.12909e-05
1.59676e-06
1.10339e-05
1.60779e-06
1.0568e-05
1.74244e-06
1.00674e-05
1.89905e-06
9.76599e-06
2.05913e-06
9.43287e-06
2.07451e-06
8.82222e-06
2.25372e-06
8.16026e-06
2.45558e-06
7.76187e-06
2.65276e-06
7.31924e-06
2.66894e-06
6.52834e-06
2.86981e-06
5.65856e-06
3.07924e-06
5.1249e-06
3.20633e-06
4.61947e-06
3.20654e-06
3.35738e-06
3.59805e-06
1.76134e-05
-8.71353e-07
1.7616e-05
-9.02512e-08
1.75888e-05
1.75193e-08
1.75219e-05
3.61397e-07
1.7435e-05
5.1152e-07
1.73791e-05
6.03904e-07
1.72959e-05
6.14145e-07
1.71479e-05
6.86932e-07
1.69994e-05
7.57784e-07
1.69114e-05
8.23086e-07
1.67985e-05
8.28741e-07
1.66006e-05
8.94159e-07
1.64027e-05
9.66963e-07
1.62861e-05
1.03869e-06
1.61439e-05
1.04429e-06
1.58942e-05
1.11973e-06
1.56416e-05
1.20693e-06
1.54922e-05
1.29617e-06
1.53155e-05
1.30347e-06
1.50029e-05
1.40086e-06
1.46816e-05
1.51545e-06
1.44908e-05
1.63098e-06
1.427e-05
1.64061e-06
1.3876e-05
1.76454e-06
1.34645e-05
1.91385e-06
1.32187e-05
2.0713e-06
1.29378e-05
2.08592e-06
1.24317e-05
2.25847e-06
1.18928e-05
2.46563e-06
1.15685e-05
2.6813e-06
1.12034e-05
2.7022e-06
1.0537e-05
2.93555e-06
9.81921e-06
3.20689e-06
9.38704e-06
3.48196e-06
8.89875e-06
3.50552e-06
8.02413e-06
3.77432e-06
7.06589e-06
4.07607e-06
6.47844e-06
4.27716e-06
5.90027e-06
4.2842e-06
4.51525e-06
4.74935e-06
1.95993e-05
-8.77217e-07
1.9598e-05
-8.0628e-08
1.95696e-05
3.01821e-08
1.95036e-05
3.93354e-07
1.94192e-05
5.61463e-07
1.93642e-05
6.66748e-07
1.92793e-05
6.78695e-07
1.91279e-05
7.62605e-07
1.89754e-05
8.43236e-07
1.88845e-05
9.16805e-07
1.87657e-05
9.2335e-07
1.85582e-05
9.98382e-07
1.83511e-05
1.08039e-06
1.82286e-05
1.1605e-06
1.80773e-05
1.1669e-06
1.78128e-05
1.25328e-06
1.75464e-05
1.35104e-06
1.73885e-05
1.4502e-06
1.71997e-05
1.45844e-06
1.68678e-05
1.56952e-06
1.65288e-05
1.69741e-06
1.63272e-05
1.8257e-06
1.60912e-05
1.8366e-06
1.56724e-05
1.97857e-06
1.52378e-05
2.14568e-06
1.49781e-05
2.32067e-06
1.46784e-05
2.33722e-06
1.41407e-05
2.53499e-06
1.35716e-05
2.76774e-06
1.32292e-05
3.00848e-06
1.28394e-05
3.03236e-06
1.21301e-05
3.30165e-06
1.1369e-05
3.60905e-06
1.09105e-05
3.91936e-06
1.03872e-05
3.94696e-06
9.44795e-06
4.26226e-06
8.42088e-06
4.61422e-06
7.79135e-06
4.84682e-06
7.15508e-06
4.85788e-06
5.14694e-06
5.90104e-06
2.01085e-05
-8.75538e-07
2.00995e-05
-6.8207e-08
2.00786e-05
4.48891e-08
2.00183e-05
4.24261e-07
1.99236e-05
6.09648e-07
1.98598e-05
7.28217e-07
1.97823e-05
7.42007e-07
1.96346e-05
8.37937e-07
1.94688e-05
9.29277e-07
1.9368e-05
1.01188e-06
1.92569e-05
1.01945e-06
1.90518e-05
1.10493e-06
1.88289e-05
1.19684e-06
1.86955e-05
1.28591e-06
1.85521e-05
1.2932e-06
1.82888e-05
1.39127e-06
1.8004e-05
1.50018e-06
1.78341e-05
1.60975e-06
1.76531e-05
1.61898e-06
1.7321e-05
1.74444e-06
1.69609e-05
1.88611e-06
1.67458e-05
2.02757e-06
1.65169e-05
2.03978e-06
1.60962e-05
2.20074e-06
1.56375e-05
2.38621e-06
1.53625e-05
2.57904e-06
1.50684e-05
2.59756e-06
1.45263e-05
2.82158e-06
1.39296e-05
3.08071e-06
1.35691e-05
3.34715e-06
1.31824e-05
3.37415e-06
1.2465e-05
3.68126e-06
1.16715e-05
4.02648e-06
1.11913e-05
4.3738e-06
1.06671e-05
4.40578e-06
9.71445e-06
4.77121e-06
8.64874e-06
5.17769e-06
7.9925e-06
5.44609e-06
7.35077e-06
5.46202e-06
5.81689e-06
6.07442e-06
2.19743e-05
-8.67168e-07
2.19626e-05
-4.03582e-08
2.1939e-05
7.69606e-08
2.18778e-05
4.86309e-07
2.17866e-05
7.05549e-07
2.17252e-05
8.52278e-07
2.1646e-05
8.69875e-07
2.14963e-05
9.88838e-07
2.13296e-05
1.10301e-06
2.1228e-05
1.20672e-06
2.11115e-05
1.21651e-06
2.08984e-05
1.32078e-06
2.06697e-05
1.43423e-06
2.05327e-05
1.54489e-06
2.03806e-05
1.55406e-06
2.01043e-05
1.67198e-06
1.98094e-05
1.80541e-06
1.96333e-05
1.94036e-06
1.94407e-05
1.95162e-06
1.90909e-05
2.10066e-06
1.87165e-05
2.27267e-06
1.84928e-05
2.44645e-06
1.82495e-05
2.46134e-06
1.7806e-05
2.65304e-06
1.7328e-05
2.87876e-06
1.70414e-05
3.11534e-06
1.67297e-05
3.13778e-06
1.61593e-05
3.40433e-06
1.55376e-05
3.7203e-06
1.51622e-05
4.04946e-06
1.47537e-05
4.08279e-06
1.39994e-05
4.4522e-06
1.31704e-05
4.87807e-06
1.26688e-05
5.31699e-06
1.21145e-05
5.3581e-06
1.11074e-05
5.80672e-06
9.9846e-06
6.32846e-06
9.29347e-06
6.69623e-06
8.60202e-06
6.72285e-06
7.18977e-06
7.23736e-06
2.37185e-05
-8.50442e-07
2.3705e-05
-7.52969e-09
2.36785e-05
1.13398e-07
2.36153e-05
5.49172e-07
2.35271e-05
8.0063e-07
2.3468e-05
9.75706e-07
2.33879e-05
9.9722e-07
2.32374e-05
1.1404e-06
2.30715e-05
1.27916e-06
2.29701e-05
1.4058e-06
2.28495e-05
1.41809e-06
2.26306e-05
1.54268e-06
2.23983e-05
1.67945e-06
2.2259e-05
1.81351e-06
2.20998e-05
1.82477e-06
2.18132e-05
1.96384e-06
2.15106e-05
2.12354e-06
2.13299e-05
2.28575e-06
2.11274e-05
2.29923e-06
2.07626e-05
2.47306e-06
2.03765e-05
2.67734e-06
2.01457e-05
2.88559e-06
1.98895e-05
2.90335e-06
1.94263e-05
3.12706e-06
1.89318e-05
3.39535e-06
1.86354e-05
3.6783e-06
1.83078e-05
3.70485e-06
1.7712e-05
4.0152e-06
1.70685e-05
4.39068e-06
1.66804e-05
4.7859e-06
1.62525e-05
4.82578e-06
1.54659e-05
5.25954e-06
1.46071e-05
5.77047e-06
1.40876e-05
6.30729e-06
1.35072e-05
6.35825e-06
1.24532e-05
6.89496e-06
1.12824e-05
7.54125e-06
1.0562e-05
8.02118e-06
9.82726e-06
8.06027e-06
8.65113e-06
8.38569e-06
2.53769e-05
-8.40083e-07
2.53622e-05
1.02533e-08
2.53327e-05
1.32909e-07
2.52673e-05
5.81777e-07
2.51814e-05
8.49286e-07
2.51244e-05
1.03811e-06
2.50435e-05
1.06163e-06
2.48926e-05
1.2185e-06
2.47283e-05
1.37007e-06
2.46278e-05
1.50761e-06
2.45039e-05
1.52125e-06
2.4281e-05
1.65851e-06
2.40468e-05
1.8072e-06
2.39061e-05
1.9519e-06
2.3741e-05
1.96432e-06
2.34461e-05
2.11737e-06
2.3138e-05
2.29015e-06
2.29539e-05
2.46438e-06
2.27428e-05
2.47908e-06
2.23655e-05
2.66989e-06
2.197e-05
2.89002e-06
2.17336e-05
3.1132e-06
2.14661e-05
3.13253e-06
2.09856e-05
3.37836e-06
2.04775e-05
3.66752e-06
2.0173e-05
3.97037e-06
1.98308e-05
3.99915e-06
1.92124e-05
4.33961e-06
1.85499e-05
4.74449e-06
1.81506e-05
5.16794e-06
1.77048e-05
5.21131e-06
1.68892e-05
5.6884e-06
1.60044e-05
6.24233e-06
1.54695e-05
6.8213e-06
1.48658e-05
6.87751e-06
1.37703e-05
7.4741e-06
1.25582e-05
8.18586e-06
1.18125e-05
8.71195e-06
1.10393e-05
8.75783e-06
9.43354e-06
9.52905e-06
2.60321e-05
-8.2777e-07
2.60105e-05
2.93094e-08
2.59873e-05
1.53522e-07
2.59265e-05
6.14328e-07
2.58314e-05
8.9682e-07
2.57667e-05
1.09885e-06
2.56918e-05
1.12433e-06
2.55436e-05
1.29491e-06
2.53671e-05
1.4595e-06
2.52575e-05
1.60817e-06
2.51398e-05
1.62323e-06
2.49179e-05
1.77366e-06
2.46685e-05
1.93468e-06
2.45176e-05
2.09029e-06
2.43586e-05
2.10393e-06
2.40633e-05
2.27155e-06
2.37371e-05
2.4578e-06
2.35413e-05
2.64429e-06
2.3336e-05
2.6603e-06
2.29567e-05
2.86879e-06
2.25399e-05
3.10517e-06
2.22899e-05
3.34346e-06
2.20275e-05
3.3644e-06
2.1543e-05
3.63315e-06
2.10101e-05
3.94358e-06
2.06897e-05
4.26651e-06
2.03512e-05
4.29758e-06
1.97258e-05
4.66917e-06
1.90341e-05
5.10384e-06
1.86159e-05
5.55556e-06
1.81712e-05
5.60243e-06
1.73446e-05
6.12404e-06
1.64248e-05
6.72154e-06
1.58665e-05
7.34287e-06
1.52599e-05
7.40447e-06
1.41473e-05
8.06342e-06
1.28919e-05
8.84283e-06
1.21164e-05
9.41763e-06
1.1335e-05
9.47094e-06
1.02373e-05
9.79714e-06
2.76724e-05
-8.014e-07
2.76506e-05
6.91866e-08
2.76245e-05
1.96443e-07
2.75614e-05
6.79803e-07
2.74685e-05
9.91933e-07
2.74058e-05
1.22185e-06
2.73295e-05
1.25129e-06
2.71805e-05
1.4473e-06
2.70059e-05
1.63874e-06
2.68977e-05
1.81274e-06
2.67768e-05
1.83072e-06
2.65514e-05
2.00405e-06
2.63014e-05
2.19132e-06
2.61501e-05
2.37309e-06
2.59856e-05
2.38924e-06
2.56831e-05
2.58066e-06
2.53533e-05
2.7962e-06
2.51552e-05
3.01302e-06
2.4942e-05
3.03164e-06
2.45516e-05
3.26789e-06
2.41276e-05
3.54008e-06
2.38732e-05
3.81635e-06
2.36003e-05
3.84053e-06
2.31003e-05
4.1445e-06
2.25559e-05
4.50164e-06
2.22287e-05
4.87532e-06
2.18768e-05
4.91096e-06
2.12306e-05
5.33034e-06
2.05223e-05
5.82961e-06
2.00943e-05
6.35275e-06
1.96327e-05
6.40668e-06
1.87789e-05
6.99765e-06
1.78356e-05
7.68745e-06
1.72635e-05
8.41562e-06
1.66352e-05
8.48819e-06
1.54845e-05
9.24564e-06
1.41917e-05
1.01649e-05
1.33938e-05
1.08728e-05
1.25768e-05
1.09417e-05
1.18558e-05
1.09756e-05
2.92746e-05
-7.71394e-07
2.92533e-05
1.11451e-07
2.92248e-05
2.41522e-07
2.91596e-05
7.46286e-07
2.90686e-05
1.08755e-06
2.90078e-05
1.34539e-06
2.89297e-05
1.37882e-06
2.87792e-05
1.60054e-06
2.86065e-05
1.81956e-06
2.84996e-05
2.01983e-06
2.83757e-05
2.04087e-06
2.81468e-05
2.2379e-06
2.78967e-05
2.45254e-06
2.77453e-05
2.66171e-06
2.75759e-05
2.68052e-06
2.72672e-05
2.8965e-06
2.69349e-05
3.14262e-06
2.67353e-05
3.39123e-06
2.65152e-05
3.41265e-06
2.61152e-05
3.67749e-06
2.56855e-05
3.98722e-06
2.54278e-05
4.30348e-06
2.51453e-05
4.33108e-06
2.46315e-05
4.67117e-06
2.40778e-05
5.07702e-06
2.37451e-05
5.50391e-06
2.33809e-05
5.54433e-06
2.27161e-05
6.01249e-06
2.19937e-05
6.57891e-06
2.15575e-05
7.17684e-06
2.10803e-05
7.23812e-06
2.02018e-05
7.89969e-06
1.9238e-05
8.68526e-06
1.8654e-05
9.52525e-06
1.80057e-05
9.60932e-06
1.68202e-05
1.04682e-05
1.54948e-05
1.15336e-05
1.46775e-05
1.23861e-05
1.38275e-05
1.24719e-05
1.35412e-05
1.21691e-05
3.08554e-05
-7.38003e-07
3.0835e-05
1.55672e-07
3.08042e-05
2.88322e-07
3.07369e-05
8.13644e-07
3.06479e-05
1.18386e-06
3.05888e-05
1.46977e-06
3.05086e-05
1.50725e-06
3.03564e-05
1.75495e-06
3.01855e-05
2.00216e-06
3.00798e-05
2.22962e-06
2.99526e-05
2.25384e-06
2.97203e-05
2.47523e-06
2.94702e-05
2.71826e-06
2.9319e-05
2.95597e-06
2.91448e-05
2.97755e-06
2.88302e-05
3.21874e-06
2.84961e-05
3.49653e-06
2.82955e-05
3.77822e-06
2.80688e-05
3.80254e-06
2.76604e-05
4.09662e-06
2.72265e-05
4.4454e-06
2.69663e-05
4.80357e-06
2.6675e-05
4.83479e-06
2.61488e-05
5.21188e-06
2.55874e-05
5.6683e-06
2.52501e-05
6.15074e-06
2.48746e-05
6.19613e-06
2.41931e-05
6.71402e-06
2.34588e-05
7.34988e-06
2.30159e-05
8.02574e-06
2.25242e-05
8.09463e-06
2.16232e-05
8.82807e-06
2.06419e-05
9.71264e-06
2.00478e-05
1.06691e-05
1.93809e-05
1.07652e-05
1.81639e-05
1.17282e-05
1.68106e-05
1.29452e-05
1.59769e-05
1.39537e-05
1.50963e-05
1.40577e-05
1.52884e-05
1.33863e-05
3.24272e-05
-7.19988e-07
3.24077e-05
1.78576e-07
3.23746e-05
3.12469e-07
3.23051e-05
8.48621e-07
3.22178e-05
1.2337e-06
3.21604e-05
1.53312e-06
3.2078e-05
1.57266e-06
3.19239e-05
1.83516e-06
3.17547e-05
2.09679e-06
3.16503e-05
2.33674e-06
3.15199e-05
2.36263e-06
3.1284e-05
2.59923e-06
3.10342e-05
2.8565e-06
3.08832e-05
3.10669e-06
3.07042e-05
3.12975e-06
3.03839e-05
3.38795e-06
3.00482e-05
3.6812e-06
2.98469e-05
3.97677e-06
2.96139e-05
4.00264e-06
2.91976e-05
4.31744e-06
2.87605e-05
4.68505e-06
2.84984e-05
5.06057e-06
2.81989e-05
5.09375e-06
2.76615e-05
5.49775e-06
2.70937e-05
5.97852e-06
2.67529e-05
6.48358e-06
2.63667e-05
6.53165e-06
2.56699e-05
7.08578e-06
2.49257e-05
7.75546e-06
2.44771e-05
8.46287e-06
2.39719e-05
8.5358e-06
2.30506e-05
9.32072e-06
2.20544e-05
1.02547e-05
2.14519e-05
1.12584e-05
2.07679e-05
1.13608e-05
1.95223e-05
1.23976e-05
1.81454e-05
1.36932e-05
1.72982e-05
1.47633e-05
1.63895e-05
1.4877e-05
1.62195e-05
1.41974e-05
3.3262e-05
-7.01093e-07
3.32357e-05
2.01773e-07
3.32086e-05
3.36792e-07
3.31436e-05
8.83318e-07
3.30471e-05
1.28289e-06
3.29821e-05
1.59549e-06
3.29056e-05
1.63705e-06
3.2754e-05
1.91423e-06
3.25725e-05
2.19019e-06
3.24591e-05
2.44259e-06
3.23345e-05
2.47015e-06
3.20994e-05
2.72216e-06
3.18341e-05
2.99375e-06
3.16727e-05
3.25641e-06
3.14993e-05
3.28097e-06
3.1178e-05
3.5565e-06
3.08236e-05
3.86528e-06
3.061e-05
4.17461e-06
3.03824e-05
4.20203e-06
2.99632e-05
4.53779e-06
2.95038e-05
4.92422e-06
2.92274e-05
5.31697e-06
2.89325e-05
5.35214e-06
2.83899e-05
5.78363e-06
2.77955e-05
6.28888e-06
2.74376e-05
6.81637e-06
2.70546e-05
6.86713e-06
2.63495e-05
7.45814e-06
2.55734e-05
8.16173e-06
2.51039e-05
8.90032e-06
2.45997e-05
8.97728e-06
2.36657e-05
9.81445e-06
2.26305e-05
1.0798e-05
2.20019e-05
1.18484e-05
2.13147e-05
1.19571e-05
2.00501e-05
1.3069e-05
1.8624e-05
1.44438e-05
1.77426e-05
1.55765e-05
1.68252e-05
1.57e-05
1.71576e-05
1.50383e-05
3.48737e-05
-6.62238e-07
3.48485e-05
2.49481e-07
3.48188e-05
3.86754e-07
3.47513e-05
9.52824e-07
3.46566e-05
1.38129e-06
3.45933e-05
1.72223e-06
3.45142e-05
1.76788e-06
3.43605e-05
2.07158e-06
3.41808e-05
2.37687e-06
3.40688e-05
2.6579e-06
3.39407e-05
2.68888e-06
3.37021e-05
2.96663e-06
3.34374e-05
3.26848e-06
3.32764e-05
3.56164e-06
3.30981e-05
3.58924e-06
3.2771e-05
3.89159e-06
3.24154e-05
4.23413e-06
3.22013e-05
4.5785e-06
3.19671e-05
4.60901e-06
3.15401e-05
4.97533e-06
3.1078e-05
5.40303e-06
3.08002e-05
5.84051e-06
3.04973e-05
5.87962e-06
2.99441e-05
6.35045e-06
2.93444e-05
6.90966e-06
2.89834e-05
7.4963e-06
2.85902e-05
7.55238e-06
2.78707e-05
8.1958e-06
2.7086e-05
8.97294e-06
2.66118e-05
9.79416e-06
2.60947e-05
9.87917e-06
2.51416e-05
1.07917e-05
2.40935e-05
1.188e-05
2.34577e-05
1.30536e-05
2.27544e-05
1.31751e-05
2.14637e-05
1.43975e-05
2.0017e-05
1.59333e-05
1.91242e-05
1.72392e-05
1.81815e-05
1.73832e-05
1.90164e-05
1.63529e-05
3.64925e-05
-6.21193e-07
3.64687e-05
2.98848e-07
3.64362e-05
4.3831e-07
3.6366e-05
1.02363e-06
3.62729e-05
1.48095e-06
3.62112e-05
1.85046e-06
3.61294e-05
1.90024e-06
3.59732e-05
2.23056e-06
3.57954e-05
2.56562e-06
3.56849e-05
2.87603e-06
3.55532e-05
2.91053e-06
3.53109e-05
3.21443e-06
3.50471e-05
3.54737e-06
3.48869e-05
3.87212e-06
3.47036e-05
3.90288e-06
3.43709e-05
4.23255e-06
3.40144e-05
4.6099e-06
3.37999e-05
4.99065e-06
3.35592e-05
5.02434e-06
3.31243e-05
5.42152e-06
3.26601e-05
5.89135e-06
3.23812e-05
6.37497e-06
3.20704e-05
6.41814e-06
3.15072e-05
6.92873e-06
3.09032e-05
7.54346e-06
3.054e-05
8.19141e-06
3.01368e-05
8.25298e-06
2.94038e-05
8.94923e-06
2.86119e-05
9.80179e-06
2.81339e-05
1.07085e-05
2.76046e-05
1.08017e-05
2.66339e-05
1.179e-05
2.55749e-05
1.29855e-05
2.49334e-05
1.42863e-05
2.4215e-05
1.44209e-05
2.29004e-05
1.57551e-05
2.14369e-05
1.74553e-05
2.05351e-05
1.89432e-05
1.95694e-05
1.91085e-05
2.09206e-05
1.77037e-05
3.81244e-05
-5.99468e-07
3.81021e-05
3.24324e-07
3.80668e-05
4.64879e-07
3.79936e-05
1.06067e-06
3.79021e-05
1.53286e-06
3.78421e-05
1.91595e-06
3.77573e-05
1.96783e-06
3.75984e-05
2.31363e-06
3.74224e-05
2.66386e-06
3.73134e-05
2.98748e-06
3.7178e-05
3.0238e-06
3.6932e-05
3.34447e-06
3.66691e-05
3.69288e-06
3.65097e-05
4.03105e-06
3.63214e-05
4.06349e-06
3.59832e-05
4.41231e-06
3.56263e-05
4.8065e-06
3.54117e-05
5.20199e-06
3.51645e-05
5.23741e-06
3.47217e-05
5.65766e-06
3.42556e-05
6.1474e-06
3.3976e-05
6.64913e-06
3.36574e-05
6.69448e-06
3.30845e-05
7.23547e-06
3.24771e-05
7.87656e-06
3.21121e-05
8.54825e-06
3.16992e-05
8.61278e-06
3.09534e-05
9.34977e-06
3.01557e-05
1.02386e-05
2.96747e-05
1.11781e-05
2.91335e-05
1.12757e-05
2.81464e-05
1.23215e-05
2.70785e-05
1.357e-05
2.64325e-05
1.49196e-05
2.56997e-05
1.50611e-05
2.43634e-05
1.64781e-05
2.28862e-05
1.82631e-05
2.19775e-05
1.98197e-05
2.0991e-05
1.9996e-05
2.19361e-05
1.90925e-05
3.91053e-05
-5.77515e-07
3.90754e-05
3.4998e-07
3.90467e-05
4.91578e-07
3.89785e-05
1.09762e-06
3.88771e-05
1.58439e-06
3.88089e-05
1.98072e-06
3.87306e-05
2.03466e-06
3.85746e-05
2.39582e-06
3.83855e-05
2.76106e-06
3.82668e-05
3.09768e-06
3.81379e-05
3.13581e-06
3.78929e-05
3.47334e-06
3.76135e-05
3.83719e-06
3.74428e-05
4.18864e-06
3.72609e-05
4.22276e-06
3.69219e-05
4.59099e-06
3.65448e-05
5.00205e-06
3.63171e-05
5.4121e-06
3.60759e-05
5.44926e-06
3.56303e-05
5.89298e-06
3.51401e-05
6.40248e-06
3.48449e-05
6.92186e-06
3.45317e-05
6.96936e-06
3.39537e-05
7.54114e-06
3.33174e-05
8.20847e-06
3.29337e-05
8.90342e-06
3.2525e-05
8.9709e-06
3.1771e-05
9.74917e-06
3.09384e-05
1.06741e-05
3.04345e-05
1.16456e-05
2.98953e-05
1.17476e-05
2.88955e-05
1.28513e-05
2.77849e-05
1.41527e-05
2.711e-05
1.55499e-05
2.63753e-05
1.56982e-05
2.50201e-05
1.71988e-05
2.34888e-05
1.90685e-05
2.2542e-05
2.06926e-05
2.15481e-05
2.08801e-05
2.29503e-05
1.96186e-05
4.07977e-05
-5.33189e-07
4.07694e-05
4.02572e-07
4.07377e-05
5.46308e-07
4.06664e-05
1.17151e-06
4.05665e-05
1.68729e-06
4.04999e-05
2.11259e-06
4.04184e-05
2.17072e-06
4.02594e-05
2.55892e-06
4.00719e-05
2.95479e-06
3.99547e-05
3.32192e-06
3.98219e-05
3.3637e-06
3.95731e-05
3.72838e-06
3.92947e-05
4.12482e-06
3.91249e-05
4.50957e-06
3.89378e-05
4.54706e-06
3.85933e-05
4.94392e-06
3.8216e-05
5.39179e-06
3.79883e-05
5.84038e-06
3.77405e-05
5.88097e-06
3.72871e-05
6.35703e-06
3.67951e-05
6.91046e-06
3.64993e-05
7.47785e-06
3.61782e-05
7.52955e-06
3.55906e-05
8.14248e-06
3.49513e-05
8.86804e-06
3.45661e-05
9.62737e-06
3.41479e-05
9.7006e-06
3.33815e-05
1.05336e-05
3.25439e-05
1.15373e-05
3.20374e-05
1.25983e-05
3.14867e-05
1.27088e-05
3.04713e-05
1.38906e-05
2.9353e-05
1.53037e-05
2.86744e-05
1.68334e-05
2.79262e-05
1.69952e-05
2.65508e-05
1.86112e-05
2.5008e-05
2.06517e-05
2.40558e-05
2.24697e-05
2.30433e-05
2.268e-05
2.49376e-05
2.10845e-05
4.25131e-05
-4.8743e-07
4.24867e-05
4.56675e-07
4.24519e-05
6.02587e-07
4.23772e-05
1.24705e-06
4.22788e-05
1.79195e-06
4.22139e-05
2.24659e-06
4.2129e-05
2.30893e-06
4.19666e-05
2.7243e-06
4.17808e-05
3.15115e-06
4.16651e-05
3.54945e-06
4.15281e-05
3.59499e-06
4.12751e-05
3.98701e-06
4.09979e-05
4.41672e-06
4.08292e-05
4.83577e-06
4.06368e-05
4.87673e-06
4.02864e-05
5.30248e-06
3.99092e-05
5.78808e-06
3.96818e-05
6.27655e-06
3.94273e-05
6.32069e-06
3.89661e-05
6.82933e-06
3.84728e-05
7.42772e-06
3.81765e-05
8.04451e-06
3.78474e-05
8.10047e-06
3.72502e-05
8.75442e-06
3.66085e-05
9.53942e-06
3.62223e-05
1.03651e-05
3.57946e-05
1.04442e-05
3.50162e-05
1.13318e-05
3.41744e-05
1.24159e-05
3.36662e-05
1.35688e-05
3.31042e-05
1.36881e-05
3.20737e-05
1.49477e-05
3.09494e-05
1.64742e-05
3.02682e-05
1.814e-05
2.95068e-05
1.83157e-05
2.81126e-05
2.00469e-05
2.65612e-05
2.22601e-05
2.56057e-05
2.42787e-05
2.45759e-05
2.45123e-05
2.69579e-05
2.25911e-05
4.42557e-05
-4.63328e-07
4.42313e-05
4.84529e-07
4.41932e-05
6.31549e-07
4.41149e-05
1.28681e-06
4.40181e-05
1.84682e-06
4.39548e-05
2.31519e-06
4.38662e-05
2.37969e-06
4.37001e-05
2.81131e-06
4.3516e-05
3.25395e-06
4.34019e-05
3.66587e-06
4.32604e-05
3.71334e-06
4.30029e-05
4.12357e-06
4.2727e-05
4.56973e-06
4.25594e-05
5.00281e-06
4.23615e-05
5.04561e-06
4.20053e-05
5.49261e-06
4.16284e-05
5.99626e-06
4.14015e-05
6.50014e-06
4.114e-05
6.5462e-06
4.06711e-05
7.08074e-06
4.01767e-05
7.70013e-06
3.98802e-05
8.33516e-06
3.95428e-05
8.39345e-06
3.8936e-05
9.08099e-06
3.82925e-05
9.89373e-06
3.79057e-05
1.07436e-05
3.74682e-05
1.08259e-05
3.6678e-05
1.17586e-05
3.58331e-05
1.28809e-05
3.53236e-05
1.40668e-05
3.47504e-05
1.41908e-05
3.37055e-05
1.55136e-05
3.25766e-05
1.70957e-05
3.18939e-05
1.88104e-05
3.11196e-05
1.89933e-05
2.97079e-05
2.08155e-05
2.81504e-05
2.31176e-05
2.71933e-05
2.52071e-05
2.61474e-05
2.54526e-05
2.80395e-05
2.41399e-05
4.53942e-05
-4.39334e-07
4.53611e-05
5.12447e-07
4.53306e-05
6.60559e-07
4.52581e-05
1.32659e-06
4.51503e-05
1.90149e-06
4.50778e-05
2.3833e-06
4.49967e-05
2.44991e-06
4.48343e-05
2.89772e-06
4.46357e-05
3.35598e-06
4.45109e-05
3.78123e-06
4.4377e-05
3.83062e-06
4.41213e-05
4.25914e-06
4.38272e-05
4.72163e-06
4.36471e-05
5.16846e-06
4.34568e-05
5.2131e-06
4.31004e-05
5.68158e-06
4.27015e-05
6.20321e-06
4.246e-05
6.72218e-06
4.22059e-05
6.77015e-06
4.17347e-05
7.33098e-06
4.12139e-05
7.97128e-06
4.09002e-05
8.62403e-06
4.05696e-05
8.6846e-06
3.99582e-05
9.40609e-06
3.9283e-05
1.02463e-05
3.88755e-05
1.11195e-05
3.84438e-05
1.12049e-05
3.7646e-05
1.21833e-05
3.67629e-05
1.33433e-05
3.62281e-05
1.45612e-05
3.56586e-05
1.46897e-05
3.46019e-05
1.60763e-05
3.34261e-05
1.77134e-05
3.27114e-05
1.94751e-05
3.19373e-05
1.96651e-05
3.05079e-05
2.15788e-05
2.88912e-05
2.39689e-05
2.78917e-05
2.61269e-05
2.6841e-05
2.63841e-05
2.91134e-05
2.48041e-05
4.72128e-05
-3.91407e-07
4.71819e-05
5.69537e-07
4.71479e-05
7.19919e-07
4.70718e-05
1.4058e-06
4.69654e-05
2.01036e-06
4.68945e-05
2.52215e-06
4.68096e-05
2.59304e-06
4.66433e-05
3.06853e-06
4.64461e-05
3.55864e-06
4.63228e-05
4.0161e-06
4.61842e-05
4.06935e-06
4.59238e-05
4.52598e-06
4.56308e-05
5.02305e-06
4.54518e-05
5.50572e-06
4.52558e-05
5.55397e-06
4.48934e-05
6.05237e-06
4.44947e-05
6.61349e-06
4.42537e-05
7.17432e-06
4.39926e-05
7.22602e-06
4.35136e-05
7.82067e-06
4.29917e-05
8.50811e-06
4.26778e-05
9.21232e-06
4.23388e-05
9.27727e-06
4.17177e-05
1.00406e-05
4.10406e-05
1.09424e-05
4.06326e-05
1.18846e-05
4.01913e-05
1.19761e-05
3.93818e-05
1.30102e-05
3.84957e-05
1.42534e-05
3.796e-05
1.55667e-05
3.73795e-05
1.5704e-05
3.63088e-05
1.71696e-05
3.51291e-05
1.89235e-05
3.44134e-05
2.08255e-05
3.36271e-05
2.10296e-05
3.21813e-05
2.30599e-05
3.056e-05
2.56267e-05
2.95601e-05
2.7993e-05
2.8495e-05
2.82741e-05
3.11946e-05
2.64383e-05
4.9066e-05
-3.42383e-07
4.90375e-05
6.28058e-07
4.89999e-05
7.80801e-07
4.89198e-05
1.4869e-06
4.88149e-05
2.12138e-06
4.87459e-05
2.66366e-06
4.86567e-05
2.7389e-06
4.8486e-05
3.24221e-06
4.82904e-05
3.76458e-06
4.81687e-05
4.25497e-06
4.80251e-05
4.31213e-06
4.77595e-05
4.79697e-06
4.74678e-05
5.32923e-06
4.72901e-05
5.84873e-06
4.7088e-05
5.90069e-06
4.67192e-05
6.42904e-06
4.6321e-05
7.03049e-06
4.60808e-05
7.63452e-06
4.58122e-05
7.69006e-06
4.5325e-05
8.31848e-06
4.48026e-05
9.0542e-06
4.44887e-05
9.81149e-06
4.41409e-05
9.88089e-06
4.35098e-05
1.06855e-05
4.28315e-05
1.165e-05
4.24233e-05
1.26632e-05
4.19719e-05
1.27608e-05
4.11505e-05
1.385e-05
4.02625e-05
1.51777e-05
3.97264e-05
1.65889e-05
3.91345e-05
1.67352e-05
3.805e-05
1.82787e-05
3.68678e-05
2.01507e-05
3.6152e-05
2.21961e-05
3.53534e-05
2.24144e-05
3.38919e-05
2.456e-05
3.22685e-05
2.73041e-05
3.12699e-05
2.98841e-05
3.01909e-05
3.01894e-05
3.32986e-05
2.81167e-05
5.09568e-05
-3.16507e-07
5.09309e-05
6.58153e-07
5.08895e-05
8.12113e-07
5.08052e-05
1.52986e-06
5.07021e-05
2.17995e-06
5.0635e-05
2.73626e-06
5.05412e-05
2.81374e-06
5.03658e-05
3.33431e-06
5.01718e-05
3.87309e-06
5.00518e-05
4.3774e-06
4.99027e-05
4.4366e-06
4.96317e-05
4.94117e-06
4.93413e-05
5.49069e-06
4.9165e-05
6.02456e-06
4.89563e-05
6.07851e-06
4.85808e-05
6.63027e-06
4.81834e-05
7.25079e-06
4.79441e-05
7.87056e-06
4.76677e-05
7.92819e-06
4.71722e-05
8.58544e-06
4.66495e-05