/*--------------------------------*- C++ -*----------------------------------*\
| =========                 |                                                 |
| \\      /  F ield         | OpenFOAM: The Open Source CFD Toolbox           |
|  \\    /   O peration     | Version:  2506                                  |
|   \\  /    A nd           | Website:  www.openfoam.com                      |
|    \\/     M anipulation  |                                                 |
\*---------------------------------------------------------------------------*/
FoamFile
{
    version     2.0;
    format      ascii;
    arch        "LSB;label=32;scalar=64";
    class       volScalarField;
    location    "6000";
    object      R;
}
// * * * * * * * * * * * * * * * * * * * * * * * * * * * * * * * * * * * * * //

dimensions      [0 2 -3 0 0 0 0];

internalField   nonuniform List<scalar> 
72100
(
2.03263e-05
1.48939e-05
1.47768e-05
1.84888e-05
1.77943e-05
1.34997e-05
1.34637e-05
1.65419e-05
1.57308e-05
1.1816e-05
1.18479e-05
1.44464e-05
1.35599e-05
1.00635e-05
1.01253e-05
1.22326e-05
1.13131e-05
8.25929e-06
8.31963e-06
9.92142e-06
8.99845e-06
6.40749e-06
6.44415e-06
7.53021e-06
6.63512e-06
4.53785e-06
4.54091e-06
5.12203e-06
4.28559e-06
2.70746e-06
2.68018e-06
2.80635e-06
2.06907e-06
1.06538e-06
1.02398e-06
7.87883e-07
2.98284e-07
-1.94737e-07
-2.23804e-07
-4.61037e-07
-1.2284e-05
-1.03621e-05
-1.02725e-05
-1.10988e-05
-1.08152e-05
-9.53916e-06
-9.49489e-06
-1.0255e-05
-9.95626e-06
-8.75679e-06
-8.73798e-06
-9.38313e-06
-9.05876e-06
-7.93355e-06
-7.92858e-06
-8.45007e-06
-8.103e-06
-7.05579e-06
-7.055e-06
-7.44552e-06
-7.07432e-06
-6.10659e-06
-6.10218e-06
-6.35631e-06
-5.9685e-06
-5.0904e-06
-5.07735e-06
-5.19218e-06
-4.78602e-06
-4.004e-06
-3.98015e-06
-3.95965e-06
-3.54589e-06
-2.87733e-06
-2.84463e-06
-2.71345e-06
-2.31978e-06
-1.79579e-06
-1.76051e-06
-1.56848e-06
1.47295e-06
1.7599e-06
1.71371e-06
1.4711e-06
1.47097e-06
1.64253e-06
1.60496e-06
1.39985e-06
1.40626e-06
1.55843e-06
1.51863e-06
1.33064e-06
1.33778e-06
1.46684e-06
1.4264e-06
1.25514e-06
1.25884e-06
1.36259e-06
1.32316e-06
1.16874e-06
1.16469e-06
1.24031e-06
1.20307e-06
1.06588e-06
1.05124e-06
1.09694e-06
1.06289e-06
9.41942e-07
9.12245e-07
9.25649e-07
8.95236e-07
7.88012e-07
7.41028e-07
7.21021e-07
6.94732e-07
5.9913e-07
5.3278e-07
4.88632e-07
4.67012e-07
3.77104e-07
1.63033e-06
2.4574e-06
2.36044e-06
1.80318e-06
1.8084e-06
2.25503e-06
2.17007e-06
1.64396e-06
1.66199e-06
2.07081e-06
1.97841e-06
1.48454e-06
1.50711e-06
1.87514e-06
1.77937e-06
1.32199e-06
1.34317e-06
1.66695e-06
1.57199e-06
1.15678e-06
1.17069e-06
1.44516e-06
1.35475e-06
9.89263e-07
9.92129e-07
1.21293e-06
1.13091e-06
8.2211e-07
8.10639e-07
9.72232e-07
9.01251e-07
6.56404e-07
6.2939e-07
7.28714e-07
6.71853e-07
4.92732e-07
4.52322e-07
4.91077e-07
4.49849e-07
3.29766e-07
3.79665e-06
4.30846e-06
4.1821e-06
3.70478e-06
3.65969e-06
3.95335e-06
3.85539e-06
3.38697e-06
3.34778e-06
3.62285e-06
3.51898e-06
3.04931e-06
3.00885e-06
3.26261e-06
3.15275e-06
2.68627e-06
2.64014e-06
2.87051e-06
2.75689e-06
2.29918e-06
2.24192e-06
2.44418e-06
2.32869e-06
1.89027e-06
1.82033e-06
1.99087e-06
1.8771e-06
1.47118e-06
1.38726e-06
1.51964e-06
1.41157e-06
1.06012e-06
9.69527e-07
1.06025e-06
9.64923e-07
6.96058e-07
6.16568e-07
6.65319e-07
5.9027e-07
4.30767e-07
-2.42386e-05
-2.46245e-05
-2.436e-05
-2.32693e-05
-2.29772e-05
-2.32482e-05
-2.29865e-05
-2.19515e-05
-2.17205e-05
-2.19544e-05
-2.16956e-05
-2.06479e-05
-2.0423e-05
-2.05942e-05
-2.03435e-05
-1.92683e-05
-1.90187e-05
-1.91123e-05
-1.88732e-05
-1.77659e-05
-1.74521e-05
-1.74423e-05
-1.7219e-05
-1.60815e-05
-1.56804e-05
-1.55459e-05
-1.53379e-05
-1.41677e-05
-1.36268e-05
-1.33282e-05
-1.31335e-05
-1.19253e-05
-1.121e-05
-1.06985e-05
-1.0508e-05
-9.28178e-06
-8.34817e-06
-7.63049e-06
-7.442e-06
-6.17542e-06
1.29795e-05
1.30435e-05
1.28486e-05
1.23689e-05
1.22135e-05
1.23536e-05
1.22025e-05
1.17658e-05
1.1696e-05
1.18624e-05
1.17162e-05
1.12815e-05
1.124e-05
1.14022e-05
1.12492e-05
1.08021e-05
1.07661e-05
1.09121e-05
1.07482e-05
1.02834e-05
1.0229e-05
1.03419e-05
1.01629e-05
9.67751e-06
9.58301e-06
9.64615e-06
9.452e-06
8.93743e-06
8.76431e-06
8.74236e-06
8.531e-06
7.97409e-06
7.67843e-06
7.51824e-06
7.29335e-06
6.67466e-06
6.19771e-06
5.85343e-06
5.61535e-06
4.8861e-06
4.6186e-06
3.91817e-06
3.84685e-06
3.98636e-06
3.88822e-06
3.63685e-06
3.61017e-06
3.78202e-06
3.70318e-06
3.46102e-06
3.44125e-06
3.61442e-06
3.54186e-06
3.29957e-06
3.27228e-06
3.44893e-06
3.37989e-06
3.1355e-06
3.09425e-06
3.28079e-06
3.2229e-06
2.98139e-06
2.91886e-06
3.11968e-06
3.06156e-06
2.81612e-06
2.72986e-06
2.93921e-06
2.87732e-06
2.62506e-06
2.51264e-06
2.71996e-06
2.64217e-06
2.3865e-06
2.25835e-06
2.42406e-06
2.31689e-06
2.07488e-06
1.92805e-06
1.95703e-06
5.17271e-06
4.45496e-06
4.33184e-06
4.33094e-06
4.21359e-06
4.05529e-06
4.02521e-06
4.10371e-06
4.00825e-06
3.85049e-06
3.83654e-06
3.92017e-06
3.82182e-06
3.6447e-06
3.62844e-06
3.72564e-06
3.6204e-06
3.41852e-06
3.39308e-06
3.51704e-06
3.41372e-06
3.19789e-06
3.15587e-06
3.30718e-06
3.19263e-06
2.95939e-06
2.89458e-06
3.07791e-06
2.95862e-06
2.70031e-06
2.60624e-06
2.81283e-06
2.6688e-06
2.38197e-06
2.26483e-06
2.45716e-06
2.27315e-06
1.97864e-06
1.84086e-06
1.96096e-06
-2.25997e-05
-2.32193e-05
-2.30642e-05
-2.24168e-05
-2.22297e-05
-2.23829e-05
-2.21583e-05
-2.14379e-05
-2.13841e-05
-2.16121e-05
-2.13839e-05
-2.06521e-05
-2.06573e-05
-2.09186e-05
-2.06995e-05
-1.9908e-05
-1.9935e-05
-2.02167e-05
-2.00149e-05
-1.91427e-05
-1.91596e-05
-1.9458e-05
-1.92807e-05
-1.83022e-05
-1.82775e-05
-1.85818e-05
-1.843e-05
-1.73194e-05
-1.7199e-05
-1.74868e-05
-1.73673e-05
-1.60844e-05
-1.58078e-05
-1.60251e-05
-1.59276e-05
-1.44415e-05
-1.3862e-05
-1.38828e-05
-1.38129e-05
-1.19376e-05
8.18992e-06
7.78943e-06
7.58722e-06
7.53238e-06
7.43738e-06
7.36454e-06
7.26471e-06
7.25124e-06
7.26449e-06
7.26679e-06
7.20725e-06
7.25105e-06
7.33399e-06
7.37116e-06
7.31919e-06
7.40139e-06
7.52899e-06
7.58581e-06
7.5277e-06
7.64917e-06
7.81624e-06
7.889e-06
7.81274e-06
7.97426e-06
8.1523e-06
8.23236e-06
8.13514e-06
8.34214e-06
8.52401e-06
8.60483e-06
8.47519e-06
8.71304e-06
8.84519e-06
8.8948e-06
8.73223e-06
8.926e-06
8.9241e-06
8.85793e-06
8.64484e-06
8.64572e-06
2.46291e-06
2.07833e-06
1.98138e-06
1.97884e-06
1.93205e-06
1.81712e-06
1.77517e-06
1.86533e-06
1.81993e-06
1.66713e-06
1.64361e-06
1.75184e-06
1.7032e-06
1.50928e-06
1.47738e-06
1.62483e-06
1.57276e-06
1.33425e-06
1.28275e-06
1.48134e-06
1.42315e-06
1.12659e-06
1.04634e-06
1.31422e-06
1.25212e-06
8.94619e-07
7.77823e-07
1.142e-06
1.08548e-06
6.50092e-07
4.92023e-07
9.8801e-07
9.34689e-07
4.12348e-07
2.1296e-07
8.36031e-07
8.06427e-07
2.3538e-07
-4.81293e-08
7.78225e-07
4.4815e-06
4.00754e-06
3.83231e-06
3.73205e-06
3.64014e-06
3.52957e-06
3.4689e-06
3.51554e-06
3.457e-06
3.33767e-06
3.31102e-06
3.38285e-06
3.33049e-06
3.17885e-06
3.15831e-06
3.26391e-06
3.20815e-06
3.01232e-06
2.98861e-06
3.14249e-06
3.07484e-06
2.83123e-06
2.78867e-06
3.00053e-06
2.91557e-06
2.60848e-06
2.54116e-06
2.82317e-06
2.71149e-06
2.33189e-06
2.2308e-06
2.61514e-06
2.47452e-06
2.01173e-06
1.88529e-06
2.36009e-06
2.1688e-06
1.65339e-06
1.47918e-06
2.00463e-06
-1.58386e-05
-1.63632e-05
-1.63252e-05
-1.59617e-05
-1.58956e-05
-1.60883e-05
-1.596e-05
-1.53866e-05
-1.53655e-05
-1.56426e-05
-1.54879e-05
-1.49208e-05
-1.49973e-05
-1.53727e-05
-1.52206e-05
-1.46154e-05
-1.47618e-05
-1.52299e-05
-1.50945e-05
-1.44217e-05
-1.46106e-05
-1.51758e-05
-1.50605e-05
-1.42806e-05
-1.44743e-05
-1.51373e-05
-1.5053e-05
-1.41276e-05
-1.43013e-05
-1.50743e-05
-1.50318e-05
-1.39136e-05
-1.40193e-05
-1.49059e-05
-1.49008e-05
-1.35392e-05
-1.3486e-05
-1.44071e-05
-1.44968e-05
-1.27129e-05
4.00178e-06
3.78856e-06
3.5961e-06
3.62869e-06
3.62905e-06
3.54618e-06
3.44432e-06
3.47465e-06
3.48298e-06
3.43059e-06
3.38073e-06
3.50373e-06
3.60802e-06
3.59414e-06
3.57099e-06
3.78392e-06
3.96594e-06
3.98173e-06
3.96139e-06
4.26845e-06
4.51338e-06
4.54946e-06
4.51535e-06
4.91643e-06
5.20667e-06
5.24711e-06
5.19074e-06
5.70125e-06
6.02654e-06
6.06388e-06
5.974e-06
6.61215e-06
6.94707e-06
6.98688e-06
6.87394e-06
7.62473e-06
7.9591e-06
7.97546e-06
7.81257e-06
8.69313e-06
1.9968e-06
1.79326e-06
1.71117e-06
1.68831e-06
1.66795e-06
1.55344e-06
1.49152e-06
1.57409e-06
1.54356e-06
1.3783e-06
1.35479e-06
1.45868e-06
1.43459e-06
1.20965e-06
1.1853e-06
1.35107e-06
1.32012e-06
1.02704e-06
9.9311e-07
1.226e-06
1.19329e-06
8.19006e-07
7.61112e-07
1.09448e-06
1.05281e-06
5.77305e-07
4.82736e-07
9.45551e-07
9.02012e-07
2.87961e-07
1.42671e-07
7.79319e-07
7.26792e-07
-7.20301e-08
-2.74498e-07
5.75623e-07
5.21353e-07
-4.57425e-07
-8.07196e-07
3.79621e-07
2.73836e-06
2.51554e-06
2.40826e-06
2.348e-06
2.30211e-06
2.18998e-06
2.12442e-06
2.18705e-06
2.14588e-06
1.98932e-06
1.96268e-06
2.06084e-06
2.02003e-06
1.81254e-06
1.80897e-06
1.95131e-06
1.91626e-06
1.64817e-06
1.64502e-06
1.86405e-06
1.82665e-06
1.47653e-06
1.4575e-06
1.7728e-06
1.73023e-06
1.27497e-06
1.22621e-06
1.67346e-06
1.61409e-06
1.02721e-06
9.35e-07
1.55363e-06
1.4711e-06
7.0121e-07
5.62105e-07
1.38752e-06
1.27512e-06
3.18102e-07
5.85332e-08
1.15742e-06
3.18477e-06
2.96476e-06
2.84831e-06
2.7531e-06
2.68679e-06
2.58122e-06
2.51232e-06
2.55637e-06
2.50275e-06
2.35277e-06
2.34053e-06
2.41515e-06
2.36716e-06
2.1733e-06
2.18423e-06
2.30874e-06
2.26872e-06
2.02402e-06
2.04167e-06
2.24352e-06
2.21031e-06
1.89838e-06
1.91322e-06
2.21647e-06
2.173e-06
1.76371e-06
1.75719e-06
2.19328e-06
2.13577e-06
1.59999e-06
1.56114e-06
2.17454e-06
2.08865e-06
1.3823e-06
1.31208e-06
2.13614e-06
2.00543e-06
1.14132e-06
9.78836e-07
2.02106e-06
-1.07449e-05
-1.11273e-05
-1.1079e-05
-1.08404e-05
-1.08761e-05
-1.11342e-05
-1.1059e-05
-1.05756e-05
-1.05721e-05
-1.08533e-05
-1.07317e-05
-1.02064e-05
-1.02648e-05
-1.06554e-05
-1.05206e-05
-9.97153e-06
-1.01168e-05
-1.06423e-05
-1.04993e-05
-9.90615e-06
-1.01254e-05
-1.08052e-05
-1.0676e-05
-9.99481e-06
-1.02718e-05
-1.11368e-05
-1.10281e-05
-1.02098e-05
-1.05272e-05
-1.16314e-05
-1.15669e-05
-1.05406e-05
-1.08789e-05
-1.22858e-05
-1.22589e-05
-1.0942e-05
-1.12572e-05
-1.29965e-05
-1.30986e-05
-1.05551e-05
1.42419e-06
1.35662e-06
1.25953e-06
1.31438e-06
1.39036e-06
1.33599e-06
1.2531e-06
1.3339e-06
1.32641e-06
1.18401e-06
1.14453e-06
1.26243e-06
1.29205e-06
1.14296e-06
1.14512e-06
1.35516e-06
1.45462e-06
1.31228e-06
1.33242e-06
1.66889e-06
1.85526e-06
1.72356e-06
1.75219e-06
2.2429e-06
2.50771e-06
2.37178e-06
2.38359e-06
3.06019e-06
3.40627e-06
3.25638e-06
3.24766e-06
4.16134e-06
4.58304e-06
4.41565e-06
4.37966e-06
5.56292e-06
6.09666e-06
5.91649e-06
5.81554e-06
7.4456e-06
1.71988e-06
1.62401e-06
1.60074e-06
1.55363e-06
1.53296e-06
1.42076e-06
1.3695e-06
1.45357e-06
1.43588e-06
1.25739e-06
1.24357e-06
1.36756e-06
1.3459e-06
1.09444e-06
1.10636e-06
1.27759e-06
1.25129e-06
9.1104e-07
9.38234e-07
1.17359e-06
1.13602e-06
7.01792e-07
7.23602e-07
1.07441e-06
1.03454e-06
4.5351e-07
4.54991e-07
9.61578e-07
9.07628e-07
1.38073e-07
9.70538e-08
8.18858e-07
7.53336e-07
-2.9029e-07
-3.80213e-07
6.37799e-07
5.64332e-07
-8.31752e-07
-1.0792e-06
4.22903e-07
2.7809e-06
2.6753e-06
2.62429e-06
2.53714e-06
2.49083e-06
2.39276e-06
2.33137e-06
2.37647e-06
2.33592e-06
2.17712e-06
2.15735e-06
2.24393e-06
2.20792e-06
1.98986e-06
2.01118e-06
2.14563e-06
2.11133e-06
1.8245e-06
1.86334e-06
2.07103e-06
2.03972e-06
1.66612e-06
1.72048e-06
2.03896e-06
2.01851e-06
1.5271e-06
1.57133e-06
2.04522e-06
2.01959e-06
1.36939e-06
1.38675e-06
2.07728e-06
2.03456e-06
1.16208e-06
1.15094e-06
2.12208e-06
2.04747e-06
9.17112e-07
8.00387e-07
2.18255e-06
-8.25182e-06
-8.55472e-06
-8.47044e-06
-8.25468e-06
-8.29723e-06
-8.58964e-06
-8.53323e-06
-8.10001e-06
-8.11009e-06
-8.4165e-06
-8.31331e-06
-7.78536e-06
-7.8271e-06
-8.23037e-06
-8.09683e-06
-7.54657e-06
-7.65253e-06
-8.18729e-06
-8.03954e-06
-7.44662e-06
-7.62603e-06
-8.32398e-06
-8.17071e-06
-7.49297e-06
-7.73531e-06
-8.63969e-06
-8.50349e-06
-7.68884e-06
-7.9968e-06
-9.20399e-06
-9.09194e-06
-8.0706e-06
-8.44578e-06
-1.00596e-05
-9.97083e-06
-8.65743e-06
-9.0642e-06
-1.12e-05
-1.12426e-05
-9.42621e-06
5.07609e-07
4.85384e-07
4.45429e-07
5.11342e-07
6.13477e-07
5.7611e-07
5.1205e-07
6.39175e-07
6.52319e-07
4.81993e-07
4.51383e-07
5.80804e-07
5.89274e-07
3.70154e-07
3.72583e-07
5.8373e-07
6.39346e-07
3.89485e-07
4.29249e-07
7.50281e-07
8.73567e-07
6.02125e-07
6.63268e-07
1.14336e-06
1.35134e-06
1.03999e-06
1.09813e-06
1.7885e-06
2.08496e-06
1.73717e-06
1.78582e-06
2.7525e-06
3.16243e-06
2.76301e-06
2.78554e-06
4.11675e-06
4.68259e-06
4.22982e-06
4.18449e-06
6.17922e-06
1.59433e-06
1.52522e-06
1.53383e-06
1.48081e-06
1.46584e-06
1.36203e-06
1.31926e-06
1.39462e-06
1.38301e-06
1.20433e-06
1.18441e-06
1.32094e-06
1.3073e-06
1.04327e-06
1.06557e-06
1.24893e-06
1.2307e-06
8.66451e-07
9.18019e-07
1.16844e-06
1.14078e-06
6.60848e-07
7.30695e-07
1.08499e-06
1.0571e-06
4.23716e-07
4.88712e-07
1.00026e-06
9.6655e-07
1.0987e-07
1.4747e-07
8.88742e-07
8.38763e-07
-3.43643e-07
-3.23168e-07
7.33151e-07
6.71322e-07
-9.5276e-07
-1.07887e-06
5.4717e-07
2.39704e-06
2.34342e-06
2.3397e-06
2.24512e-06
2.22351e-06
2.13559e-06
2.08822e-06
2.13097e-06
2.10195e-06
1.92899e-06
1.91823e-06
2.01888e-06
1.99414e-06
1.74596e-06
1.77537e-06
1.91721e-06
1.89438e-06
1.56416e-06
1.6274e-06
1.83799e-06
1.81487e-06
1.39104e-06
1.47902e-06
1.80372e-06
1.79563e-06
1.23867e-06
1.32918e-06
1.81773e-06
1.80437e-06
1.05546e-06
1.14382e-06
1.87154e-06
1.84628e-06
8.30965e-07
9.05992e-07
1.96224e-06
1.9323e-06
5.5506e-07
5.34403e-07
2.13229e-06
-6.48465e-06
-6.75764e-06
-6.65971e-06
-6.43091e-06
-6.47889e-06
-6.78777e-06
-6.72935e-06
-6.33402e-06
-6.36261e-06
-6.68575e-06
-6.60124e-06
-6.08476e-06
-6.12291e-06
-6.52126e-06
-6.39992e-06
-5.82022e-06
-5.90693e-06
-6.43153e-06
-6.27342e-06
-5.65877e-06
-5.80372e-06
-6.50976e-06
-6.32686e-06
-5.63047e-06
-5.82056e-06
-6.73563e-06
-6.54752e-06
-5.71514e-06
-5.9661e-06
-7.197e-06
-7.01815e-06
-5.99025e-06
-6.31741e-06
-8.01705e-06
-7.84487e-06
-6.52174e-06
-6.92391e-06
-9.25887e-06
-9.19674e-06
-7.31814e-06
-2.10823e-07
-2.49464e-07
-2.40259e-07
-1.70191e-07
-5.42282e-08
-8.94137e-08
-1.27682e-07
3.97433e-08
8.66338e-08
-1.04995e-07
-1.32384e-07
4.167e-08
5.23617e-08
-2.32139e-07
-2.15228e-07
4.63225e-09
3.35854e-08
-3.14636e-07
-2.61606e-07
6.33642e-08
1.36899e-07
-2.57961e-07
-1.68884e-07
3.06362e-07
4.51484e-07
-1.83434e-08
8.30532e-08
7.66448e-07
9.98116e-07
4.36345e-07
5.40487e-07
1.52518e-06
1.87529e-06
1.21155e-06
1.32229e-06
2.71003e-06
3.24633e-06
2.45437e-06
2.48934e-06
4.64978e-06
1.49754e-06
1.45074e-06
1.46781e-06
1.41303e-06
1.40244e-06
1.2959e-06
1.26302e-06
1.33491e-06
1.3294e-06
1.13637e-06
1.11959e-06
1.26934e-06
1.26924e-06
9.8093e-07
1.00689e-06
1.20983e-06
1.20294e-06
8.1232e-07
8.81175e-07
1.14097e-06
1.1287e-06
6.13298e-07
7.17681e-07
1.07732e-06
1.07138e-06
3.89085e-07
5.0378e-07
1.02496e-06
1.00622e-06
8.67943e-08
2.08724e-07
9.55387e-07
9.16564e-07
-3.59998e-07
-2.32855e-07
8.41543e-07
7.95427e-07
-9.8321e-07
-9.62564e-07
7.23773e-07
2.07764e-06
2.0395e-06
2.06124e-06
1.97874e-06
1.96019e-06
1.87178e-06
1.85627e-06
1.88945e-06
1.8713e-06
1.69985e-06
1.69578e-06
1.80172e-06
1.77409e-06
1.52122e-06
1.55621e-06
1.71071e-06
1.6862e-06
1.32222e-06
1.40616e-06
1.63315e-06
1.6048e-06
1.12784e-06
1.25231e-06
1.5875e-06
1.5742e-06
9.52597e-07
1.09926e-06
1.5987e-06
1.58309e-06
7.45201e-07
9.10585e-07
1.64896e-06
1.63335e-06
4.91325e-07
6.70726e-07
1.74857e-06
1.7429e-06
1.62821e-07
2.69768e-07
1.97276e-06
-5.13419e-06
-5.39571e-06
-5.27332e-06
-5.06441e-06
-5.09054e-06
-5.39446e-06
-5.33556e-06
-4.97106e-06
-5.01734e-06
-5.37174e-06
-5.29375e-06
-4.78923e-06
-4.82318e-06
-5.25142e-06
-5.12772e-06
-4.54102e-06
-4.59744e-06
-5.13206e-06
-4.9632e-06
-4.32466e-06
-4.43327e-06
-5.13167e-06
-4.92083e-06
-4.21359e-06
-4.34851e-06
-5.2595e-06
-5.02835e-06
-4.17661e-06
-4.35504e-06
-5.58866e-06
-5.3423e-06
-4.29116e-06
-4.54806e-06
-6.27004e-06
-5.98879e-06
-4.65106e-06
-4.98752e-06
-7.41015e-06
-7.2064e-06
-5.28898e-06
-7.98987e-07
-8.59298e-07
-8.39843e-07
-7.4661e-07
-6.35426e-07
-6.97009e-07
-7.10364e-07
-5.00489e-07
-4.24574e-07
-6.27151e-07
-6.46196e-07
-4.17566e-07
-3.91807e-07
-7.21719e-07
-7.07117e-07
-4.36693e-07
-4.28121e-07
-8.49907e-07
-7.89216e-07
-4.44122e-07
-3.96956e-07
-9.19653e-07
-8.06657e-07
-3.07726e-07
-2.10654e-07
-8.35264e-07
-6.99123e-07
2.4066e-09
1.62387e-07
-5.95973e-07
-4.33494e-07
5.54952e-07
8.33563e-07
-9.76369e-08
9.37605e-08
1.49827e-06
1.96539e-06
8.22464e-07
9.67575e-07
3.17476e-06
1.41619e-06
1.38169e-06
1.41918e-06
1.34744e-06
1.34615e-06
1.2435e-06
1.22414e-06
1.28806e-06
1.27924e-06
1.08719e-06
1.0708e-06
1.22957e-06
1.22821e-06
9.31566e-07
9.61802e-07
1.17515e-06
1.17828e-06
7.59524e-07
8.4155e-07
1.11854e-06
1.10743e-06
5.6212e-07
6.92927e-07
1.06369e-06
1.06804e-06
3.51306e-07
5.11715e-07
1.04132e-06
1.03606e-06
6.02576e-08
2.52819e-07
1.0038e-06
9.81282e-07
-3.68016e-07
-1.2857e-07
9.38538e-07
9.143e-07
-9.79406e-07
-8.06485e-07
8.95772e-07
1.82463e-06
1.78806e-06
1.82682e-06
1.73427e-06
1.73131e-06
1.64043e-06
1.63708e-06
1.67302e-06
1.66309e-06
1.47565e-06
1.48206e-06
1.59915e-06
1.58195e-06
1.30161e-06
1.33824e-06
1.52096e-06
1.50146e-06
1.11429e-06
1.20634e-06
1.44908e-06
1.42384e-06
8.97967e-07
1.05518e-06
1.39195e-06
1.37953e-06
6.92193e-07
8.89896e-07
1.39647e-06
1.38458e-06
4.63137e-07
6.89137e-07
1.441e-06
1.42876e-06
1.6578e-07
4.54287e-07
1.53658e-06
1.53988e-06
-2.07667e-07
4.92266e-08
1.77659e-06
-4.04309e-06
-4.29063e-06
-4.16892e-06
-3.94617e-06
-3.98372e-06
-4.28308e-06
-4.2024e-06
-3.87114e-06
-3.91709e-06
-4.2989e-06
-4.21123e-06
-3.73548e-06
-3.77822e-06
-4.22589e-06
-4.09921e-06
-3.52797e-06
-3.57747e-06
-4.13546e-06
-3.9485e-06
-3.30183e-06
-3.37125e-06
-4.07829e-06
-3.84168e-06
-3.11133e-06
-3.2021e-06
-4.11417e-06
-3.84832e-06
-2.97284e-06
-3.10229e-06
-4.32848e-06
-4.00453e-06
-2.93559e-06
-3.12607e-06
-4.82769e-06
-4.44949e-06
-3.09605e-06
-3.35081e-06
-5.77833e-06
-5.41818e-06
-3.4825e-06
-1.32656e-06
-1.4186e-06
-1.37947e-06
-1.27663e-06
-1.1606e-06
-1.25214e-06
-1.24391e-06
-9.93677e-07
-9.09405e-07
-1.12071e-06
-1.13504e-06
-8.36013e-07
-7.93417e-07
-1.15835e-06
-1.1338e-06
-7.93351e-07
-7.85127e-07
-1.27496e-06
-1.21369e-06
-7.99884e-07
-7.9583e-07
-1.41505e-06
-1.28422e-06
-7.49147e-07
-6.93939e-07
-1.44234e-06
-1.27358e-06
-5.45605e-07
-4.274e-07
-1.36868e-06
-1.16054e-06
-1.53655e-07
6.15081e-08
-1.12879e-06
-8.43089e-07
5.48657e-07
9.39003e-07
-5.45329e-07
-2.84576e-07
1.90502e-06
1.37448e-06
1.34569e-06
1.38772e-06
1.30848e-06
1.30618e-06
1.19414e-06
1.20178e-06
1.24092e-06
1.25413e-06
1.03737e-06
1.0318e-06
1.19235e-06
1.19664e-06
8.78161e-07
9.04847e-07
1.13473e-06
1.14343e-06
7.05194e-07
7.93941e-07
1.08475e-06
1.0923e-06
5.08948e-07
6.62753e-07
1.049e-06
1.06417e-06
2.98723e-07
4.86669e-07
1.04265e-06
1.04575e-06
1.53214e-08
2.67092e-07
1.03409e-06
1.02806e-06
-3.87184e-07
-5.79944e-08
1.02057e-06
1.01212e-06
-9.71571e-07
-6.42995e-07
1.04179e-06
1.59354e-06
1.55502e-06
1.61456e-06
1.53343e-06
1.52454e-06
1.42966e-06
1.43844e-06
1.48166e-06
1.47339e-06
1.28112e-06
1.29412e-06
1.4124e-06
1.41005e-06
1.1125e-06
1.16083e-06
1.3623e-06
1.33938e-06
9.10335e-07
1.02447e-06
1.28608e-06
1.26856e-06
6.91007e-07
8.66813e-07
1.22739e-06
1.21794e-06
4.67615e-07
7.01755e-07
1.22534e-06
1.21565e-06
2.17304e-07
5.05985e-07
1.26511e-06
1.24521e-06
-1.18286e-07
2.67337e-07
1.33887e-06
1.3469e-06
-5.39766e-07
-1.26201e-07
1.5853e-06
-3.10801e-06
-3.34452e-06
-3.21954e-06
-3.02048e-06
-3.03165e-06
-3.32756e-06
-3.23159e-06
-2.92518e-06
-2.98605e-06
-3.38446e-06
-3.28255e-06
-2.82837e-06
-2.89207e-06
-3.36558e-06
-3.2451e-06
-2.68084e-06
-2.72617e-06
-3.30244e-06
-3.12343e-06
-2.46111e-06
-2.53253e-06
-3.24517e-06
-2.98418e-06
-2.23964e-06
-2.30067e-06
-3.22377e-06
-2.91783e-06
-2.02301e-06
-2.12503e-06
-3.35039e-06
-2.96824e-06
-1.88445e-06
-2.01743e-06
-3.70611e-06
-3.22619e-06
-1.86517e-06
-2.03691e-06
-4.42752e-06
-3.92086e-06
-1.98672e-06
-1.80228e-06
-1.93216e-06
-1.88343e-06
-1.74352e-06
-1.63913e-06
-1.78357e-06
-1.75834e-06
-1.46387e-06
-1.35614e-06
-1.60605e-06
-1.61216e-06
-1.23143e-06
-1.17222e-06
-1.57661e-06
-1.54942e-06
-1.12745e-06
-1.10705e-06
-1.65112e-06
-1.57958e-06
-1.09805e-06
-1.08951e-06
-1.8053e-06
-1.65652e-06
-1.06362e-06
-1.02586e-06
-1.90025e-06
-1.70608e-06
-9.19425e-07
-8.19568e-07
-1.93593e-06
-1.67807e-06
-6.24046e-07
-4.59189e-07
-1.88074e-06
-1.51547e-06
-1.00763e-07
2.03805e-07
-1.61228e-06
-1.22089e-06
9.2934e-07
1.33095e-06
1.3132e-06
1.36029e-06
1.26921e-06
1.28224e-06
1.1618e-06
1.17814e-06
1.21423e-06
1.2172e-06
9.91907e-07
1.00692e-06
1.14825e-06
1.16533e-06
8.37083e-07
8.70615e-07
1.10593e-06
1.12828e-06
6.51559e-07
7.4695e-07
1.05828e-06
1.07566e-06
4.50129e-07
6.08092e-07
1.02794e-06
1.049e-06
2.36766e-07
4.5812e-07
1.03223e-06
1.04863e-06
-3.54934e-08
2.58262e-07
1.04389e-06
1.05372e-06
-4.25555e-07
-1.61351e-08
1.05588e-06
1.07834e-06
-9.70894e-07
-5.07298e-07
1.15233e-06
1.39488e-06
1.36571e-06
1.43283e-06
1.34067e-06
1.32921e-06
1.23332e-06
1.27236e-06
1.29479e-06
1.30065e-06
1.09048e-06
1.12298e-06
1.25696e-06
1.25423e-06
9.1717e-07
9.82489e-07
1.20663e-06
1.19308e-06
7.34591e-07
8.47101e-07
1.14262e-06
1.12394e-06
4.9545e-07
6.99299e-07
1.09116e-06
1.07683e-06
2.61535e-07
5.23422e-07
1.09363e-06
1.06643e-06
-1.57912e-08
3.33841e-07
1.11955e-06
1.08831e-06
-3.70321e-07
1.14246e-07
1.18399e-06
1.18099e-06
-8.21187e-07
-2.60412e-07
1.40881e-06
-2.27845e-06
-2.50408e-06
-2.37758e-06
-2.19788e-06
-2.20688e-06
-2.47522e-06
-2.3803e-06
-2.08769e-06
-2.15086e-06
-2.54894e-06
-2.45082e-06
-2.02738e-06
-2.10264e-06
-2.59716e-06
-2.45645e-06
-1.92052e-06
-1.99254e-06
-2.59468e-06
-2.39074e-06
-1.74706e-06
-1.80943e-06
-2.54587e-06
-2.26539e-06
-1.51512e-06
-1.56242e-06
-2.50297e-06
-2.16623e-06
-1.28307e-06
-1.3396e-06
-2.58571e-06
-2.15912e-06
-1.07221e-06
-1.15188e-06
-2.84181e-06
-2.28609e-06
-9.2004e-07
-1.02504e-06
-3.38122e-06
-2.73007e-06
-8.07314e-07
-2.2753e-06
-2.4353e-06
-2.38517e-06
-2.18286e-06
-2.09604e-06
-2.30785e-06
-2.26046e-06
-1.90837e-06
-1.8031e-06
-2.11006e-06
-2.08845e-06
-1.6361e-06
-1.55808e-06
-1.99889e-06
-1.97364e-06
-1.45845e-06
-1.40771e-06
-2.02302e-06
-1.94111e-06
-1.36424e-06
-1.34216e-06
-2.1418e-06
-1.99929e-06
-1.30605e-06
-1.26775e-06
-2.25631e-06
-2.04235e-06
-1.15577e-06
-1.0815e-06
-2.33905e-06
-2.03441e-06
-9.08093e-07
-7.82478e-07
-2.40043e-06
-1.9599e-06
-5.12882e-07
-2.58038e-07
-2.35929e-06
-1.85589e-06
2.55185e-07
1.30812e-06
1.2947e-06
1.35556e-06
1.247e-06
1.27079e-06
1.14375e-06
1.1723e-06
1.19633e-06
1.21021e-06
9.76709e-07
9.98354e-07
1.13365e-06
1.15577e-06
7.92163e-07
8.3252e-07
1.08151e-06
1.10819e-06
6.07226e-07
6.95423e-07
1.03386e-06
1.05882e-06
3.85565e-07
5.6333e-07
1.00916e-06
1.04388e-06
1.68075e-07
4.10674e-07
1.01902e-06
1.04187e-06
-1.05986e-07
2.26068e-07
1.04487e-06
1.06635e-06
-4.83776e-07
-6.34024e-09
1.07805e-06
1.11394e-06
-1.00402e-06
-4.14462e-07
1.22015e-06
1.22492e-06
1.18992e-06
1.25835e-06
1.16994e-06
1.16018e-06
1.0441e-06
1.10875e-06
1.13249e-06
1.13458e-06
9.03357e-07
9.53569e-07
1.10148e-06
1.10249e-06
7.39907e-07
8.30115e-07
1.06429e-06
1.04609e-06
5.50512e-07
6.92818e-07
1.01403e-06
9.88945e-07
3.267e-07
5.39518e-07
9.71776e-07
9.56776e-07
7.48776e-08
3.75634e-07
9.65921e-07
9.53392e-07
-2.12511e-07
1.814e-07
1.00178e-06
9.62167e-07
-5.96312e-07
-3.27253e-08
1.05632e-06
1.04202e-06
-1.06698e-06
-3.72673e-07
1.26695e-06
-1.52611e-06
-1.72801e-06
-1.57867e-06
-1.44876e-06
-1.46162e-06
-1.70279e-06
-1.5843e-06
-1.34414e-06
-1.40187e-06
-1.7753e-06
-1.66863e-06
-1.30509e-06
-1.37709e-06
-1.86557e-06
-1.73666e-06
-1.23376e-06
-1.30018e-06
-1.92645e-06
-1.71881e-06
-1.10781e-06
-1.1578e-06
-1.92715e-06
-1.63269e-06
-8.93373e-07
-9.34277e-07
-1.899e-06
-1.54883e-06
-6.54716e-07
-7.17303e-07
-1.99321e-06
-1.50431e-06
-4.33301e-07
-4.8893e-07
-2.19552e-06
-1.54903e-06
-2.00917e-07
-2.62453e-07
-2.58391e-06
-1.80111e-06
7.8867e-08
-2.73545e-06
-2.96349e-06
-2.89554e-06
-2.6292e-06
-2.51825e-06
-2.81696e-06
-2.77372e-06
-2.32651e-06
-2.22506e-06
-2.62505e-06
-2.57138e-06
-2.02576e-06
-1.9393e-06
-2.4665e-06
-2.40381e-06
-1.77769e-06
-1.71915e-06
-2.41072e-06
-2.31848e-06
-1.61574e-06
-1.59246e-06
-2.48337e-06
-2.31587e-06
-1.50301e-06
-1.45578e-06
-2.57043e-06
-2.32393e-06
-1.3253e-06
-1.2442e-06
-2.6405e-06
-2.30948e-06
-1.06331e-06
-9.45036e-07
-2.74006e-06
-2.24689e-06
-7.28199e-07
-4.96261e-07
-2.86145e-06
-2.25055e-06
-1.3296e-07
1.28397e-06
1.29392e-06
1.34605e-06
1.24115e-06
1.2508e-06
1.13075e-06
1.17441e-06
1.16964e-06
1.19964e-06
9.55714e-07
9.79211e-07
1.1224e-06
1.15119e-06
7.62624e-07
8.11139e-07
1.06354e-06
1.08524e-06
5.54695e-07
6.545e-07
1.01127e-06
1.04749e-06
3.33178e-07
5.10427e-07
9.9723e-07
1.02979e-06
1.09167e-07
3.65811e-07
1.00896e-06
1.04172e-06
-1.87125e-07
1.92257e-07
1.03172e-06
1.06491e-06
-5.7259e-07
-2.07644e-08
1.08787e-06
1.13371e-06
-1.05145e-06
-3.57787e-07
1.2515e-06
1.06254e-06
1.02107e-06
1.10834e-06
1.00821e-06
1.00232e-06
8.79753e-07
9.59484e-07
9.9069e-07
9.87441e-07
7.28565e-07
8.03253e-07
9.50195e-07
9.57388e-07
5.58731e-07
6.72194e-07
9.16415e-07
9.23175e-07
3.64707e-07
5.32817e-07
8.9155e-07
8.659e-07
1.39912e-07
3.75505e-07
8.68075e-07
8.45734e-07
-9.93546e-08
2.29549e-07
8.63103e-07
8.38539e-07
-4.04126e-07
4.34823e-08
9.00943e-07
8.58489e-07
-7.8506e-07
-1.55774e-07
9.39945e-07
9.28595e-07
-1.27719e-06
-4.65579e-07
1.14466e-06
-8.07868e-07
-9.75001e-07
-8.31591e-07
-7.42288e-07
-7.55317e-07
-9.78823e-07
-8.48623e-07
-6.56806e-07
-7.04389e-07
-1.05424e-06
-9.28838e-07
-6.09601e-07
-6.93768e-07
-1.17267e-06
-1.02717e-06
-5.80319e-07
-6.56883e-07
-1.27355e-06
-1.05787e-06
-5.03846e-07
-5.41733e-07
-1.32523e-06
-1.02404e-06
-3.2852e-07
-3.67054e-07
-1.3889e-06
-9.8741e-07
-1.27689e-07
-1.76634e-07
-1.49596e-06
-9.64529e-07
9.53022e-08
4.0179e-08
-1.70827e-06
-9.69162e-07
3.65275e-07
3.16007e-07
-2.01647e-06
-1.10184e-06
7.46424e-07
-3.19253e-06
-3.50175e-06
-3.41127e-06
-3.06056e-06
-2.94925e-06
-3.34254e-06
-3.28636e-06
-2.75583e-06
-2.64074e-06
-3.15082e-06
-3.08383e-06
-2.42653e-06
-2.32565e-06
-2.95435e-06
-2.87446e-06
-2.12426e-06
-2.04962e-06
-2.84863e-06
-2.73397e-06
-1.88058e-06
-1.84282e-06
-2.84044e-06
-2.64892e-06
-1.6873e-06
-1.61488e-06
-2.85036e-06
-2.58422e-06
-1.44029e-06
-1.34396e-06
-2.88373e-06
-2.50509e-06
-1.15018e-06
-1.0046e-06
-2.98016e-06
-2.4322e-06
-8.02941e-07
-5.82577e-07
-3.15563e-06
-2.447e-06
-3.15241e-07
1.28594e-06
1.30303e-06
1.34486e-06
1.23617e-06
1.25729e-06
1.12726e-06
1.18173e-06
1.18331e-06
1.19476e-06
9.39043e-07
9.89165e-07
1.11459e-06
1.14409e-06
7.30363e-07
8.03315e-07
1.05712e-06
1.08968e-06
5.12054e-07
6.33307e-07
1.00512e-06
1.04041e-06
2.88124e-07
4.65896e-07
9.93628e-07
1.03563e-06
3.88601e-08
3.21237e-07
9.98645e-07
1.03391e-06
-2.76345e-07
1.50278e-07
1.02625e-06
1.06342e-06
-6.53376e-07
-4.06933e-08
1.06993e-06
1.14165e-06
-1.13183e-06
-3.41176e-07
1.26334e-06
9.04392e-07
8.59065e-07
9.65863e-07
8.5439e-07
8.50296e-07
7.10504e-07
8.00639e-07
8.2637e-07
8.33978e-07
5.57615e-07
6.49386e-07
8.14761e-07
8.12984e-07
3.92631e-07
5.10843e-07
7.87804e-07
7.80035e-07
1.84562e-07
3.69732e-07
7.63612e-07
7.60114e-07
-2.99892e-08
2.35292e-07
7.64083e-07
7.35388e-07
-2.78145e-07
7.81869e-08
7.77734e-07
7.52857e-07
-5.81035e-07
-8.46193e-08
8.09759e-07
7.63288e-07
-9.79422e-07
-2.66325e-07
8.58436e-07
8.34371e-07
-1.46473e-06
-5.34185e-07
1.04543e-06
-1.46825e-07
-2.44919e-07
-9.13622e-08
-7.28473e-08
-8.97992e-08
-2.59171e-07
-1.09284e-07
6.63838e-09
-3.59426e-08
-3.58065e-07
-2.10444e-07
1.26578e-08
-3.17182e-08
-5.07718e-07
-3.30619e-07
3.06727e-08
-2.87253e-08
-6.46836e-07
-4.06068e-07
8.88156e-08
2.32637e-08
-7.73324e-07
-4.52459e-07
1.91238e-07
1.45195e-07
-9.0419e-07
-4.60076e-07
3.45455e-07
2.79362e-07
-1.08137e-06
-4.89376e-07
5.38695e-07
4.81979e-07
-1.30553e-06
-4.92209e-07
8.17808e-07
7.73707e-07
-1.5871e-06
-5.57964e-07
1.24803e-06
-3.64354e-06
-4.04956e-06
-3.98138e-06
-3.50353e-06
-3.3787e-06
-3.90299e-06
-3.82496e-06
-3.16489e-06
-3.06559e-06
-3.68472e-06
-3.60399e-06
-2.80712e-06
-2.7347e-06
-3.47181e-06
-3.3726e-06
-2.47028e-06
-2.40275e-06
-3.31047e-06
-3.18257e-06
-2.17099e-06
-2.08734e-06
-3.2081e-06
-2.99697e-06
-1.86777e-06
-1.78128e-06
-3.14042e-06
-2.85291e-06
-1.55075e-06
-1.41521e-06
-3.11216e-06
-2.69025e-06
-1.17989e-06
-1.02051e-06
-3.17057e-06
-2.55312e-06
-8.14979e-07
-5.66336e-07
-3.35102e-06
-2.5426e-06
-3.49589e-07
1.28473e-06
1.31353e-06
1.38023e-06
1.24163e-06
1.26767e-06
1.13088e-06
1.18485e-06
1.17593e-06
1.20973e-06
9.20813e-07
9.77821e-07
1.10778e-06
1.15371e-06
7.06557e-07
7.98864e-07
1.05269e-06
1.09802e-06
4.70368e-07
6.17873e-07
1.01234e-06
1.05966e-06
2.30828e-07
4.42473e-07
1.00509e-06
1.04102e-06
-4.00526e-08
2.94825e-07
9.94374e-07
1.03794e-06
-3.58568e-07
1.11604e-07
1.02186e-06
1.06673e-06
-7.49813e-07
-7.15173e-08
1.06956e-06
1.1442e-06
-1.21245e-06
-3.27082e-07
1.26316e-06
7.48391e-07
6.93206e-07
8.12135e-07
7.10003e-07
7.10461e-07
5.47092e-07
6.397e-07
6.96407e-07
6.99118e-07
3.90597e-07
5.12628e-07
6.79793e-07
6.83788e-07
2.17031e-07
3.60379e-07
6.59843e-07
6.59617e-07
2.01957e-08
2.15873e-07
6.55313e-07
6.41829e-07
-1.93574e-07
9.83414e-08
6.58846e-07
6.53954e-07
-4.49661e-07
-5.17049e-08
6.86777e-07
6.48281e-07
-7.69805e-07
-2.09373e-07
7.23165e-07
6.72452e-07
-1.16774e-06
-3.72198e-07
7.74804e-07
7.41677e-07
-1.65018e-06
-6.05692e-07
9.56217e-07
5.1518e-07
5.03594e-07
6.48134e-07
5.59398e-07
5.39603e-07
4.3755e-07
6.18869e-07
6.05384e-07
5.74824e-07
3.15857e-07
4.89307e-07
6.08931e-07
5.58699e-07
1.42555e-07
3.607e-07
6.01342e-07
5.52858e-07
-5.06143e-08
2.377e-07
6.20525e-07
5.73277e-07
-2.46175e-07
1.16956e-07
6.77605e-07
6.0938e-07
-4.54437e-07
3.7074e-08
7.77214e-07
7.1723e-07
-6.96491e-07
-1.98382e-08
9.49786e-07
8.81881e-07
-9.66972e-07
-5.24145e-08
1.20324e-06
1.15747e-06
-1.2651e-06
-9.33562e-08
1.65091e-06
-4.11555e-06
-4.66193e-06
-4.57126e-06
-3.93244e-06
-3.80917e-06
-4.48135e-06
-4.4045e-06
-3.57604e-06
-3.47499e-06
-4.25273e-06
-4.1544e-06
-3.19885e-06