/*--------------------------------*- C++ -*----------------------------------*\
| =========                 |                                                 |
| \\      /  F ield         | OpenFOAM: The Open Source CFD Toolbox           |
|  \\    /   O peration     | Version:  2506                                  |
|   \\  /    A nd           | Website:  www.openfoam.com                      |
|    \\/     M anipulation  |                                                 |
\*---------------------------------------------------------------------------*/
FoamFile
{
    version     2.0;
    format      ascii;
    arch        "LSB;label=32;scalar=64";
    class       volScalarField;
    location    "6000";
    object      yPlus;
}
// * * * * * * * * * * * * * * * * * * * * * * * * * * * * * * * * * * * * * //

dimensions      [0 0 0 0 0 0 0];

internalField   uniform 0;

boundaryField
{
    inlet
    {
        type            calculated;
        value           uniform 0;
    }
    outlet
    {
        type            calculated;
        value           uniform 0;
    }
    bottom
    {
        type            calculated;
        value           nonuniform List<scalar> 
412
(
0.982233
0.918536
0.918865
0.966822
0.959754
0.904759
0.905674
0.94857
0.938888
0.883235
0.884989
0.924995
0.912642
0.856389
0.858546
0.895047
0.879908
0.822812
0.824881
0.856835
0.838351
0.779797
0.781217
0.806983
0.784125
0.723233
0.723387
0.740402
0.710976
0.645588
0.643693
0.647601
0.606685
0.533744
0.52867
0.508991
0.452273
0.353401
0.34398
0.301141
0.0727659
0.10951
0.100838
0.155838
0.26922
0.257404
0.270918
0.419127
0.298908
0.486159
0.478644
0.107406
0.565675
0.825848
0.854829
0.975444
1.03245
1.0369
1.05025
1.15069
1.16004
1.13512
1.14702
1.235
1.22813
1.18867
1.20031
1.28201
1.26667
1.21872
1.23055
1.30852
1.28854
1.23535
1.2476
1.32315
1.30055
1.2438
1.25654
1.33017
1.306
1.24667
1.25989
1.33179
1.3067
1.24537
1.25905
1.32918
1.30353
1.24054
1.25461
1.32284
1.29685
1.23246
1.24684
1.31299
1.28684
1.22127
1.23588
1.29975
1.27359
1.20704
1.22177
1.28317
1.25714
1.18976
1.20452
1.26321
1.23738
1.16932
1.18399
1.23973
1.2142
1.1456
1.16006
1.21262
1.18742
1.11839
1.13251
1.18158
1.15668
1.08723
1.10084
1.14589
1.12093
1.05096
1.0639
1.10448
1.0794
1.00905
1.02114
1.05673
1.03117
0.9603
0.971335
1.00112
0.974461
0.902791
0.912508
0.935347
0.90642
0.8332
0.841211
0.855102
0.822224
0.746751
0.752641
0.755356
0.716158
0.636914
0.640073
0.627889
0.578685
0.493336
0.492971
0.460217
0.393804
0.293531
0.287633
0.21125
0.0463564
0.204108
0.214721
0.282355
0.330094
0.347527
0.353029
0.384356
0.402083
0.392912
0.396524
0.414324
0.420984
0.401541
0.404196
0.416478
0.419708
0.396671
0.398759
0.408841
0.411717
0.387916
0.389611
0.399035
0.402826
0.379286
0.380629
0.389891
0.3948
0.371348
0.372237
0.380693
0.385787
0.361854
0.362172
0.369466
0.374757
0.350737
0.350508
0.356907
0.362635
0.338932
0.3382
0.344042
0.350465
0.327324
0.326106
0.331502
0.338539
0.315892
0.314171
0.319091
0.326733
0.304758
0.302566
0.307393
0.316171
0.295426
0.292853
0.298454
0.309424
0.290655
0.287804
0.295376
0.30995
0.2938
0.290716
0.301452
0.320973
0.307516
0.304096
0.318618
0.343732
0.332135
0.328082
0.346057
0.376379
0.365009
0.359873
0.379978
0.413917
0.400376
0.393595
0.412954
0.446097
0.425104
0.415574
0.42381
0.437029
0.386773
0.364735
0.235795
0.137
0.304358
0.307884
0.311851
0.377596
0.37648
0.374413
0.409357
0.437185
0.435302
0.432551
0.458377
0.482484
0.474556
0.471567
0.49577
0.515665
0.505033
0.502255
0.525571
0.542301
0.529828
0.527476
0.550434
0.564168
0.55032
0.548522
0.57127
0.581987
0.566987
0.56583
0.58847
0.596267
0.58067
0.580336
0.604215
0.610976
0.597784
0.599941
0.643322
0.666626
0.653132
0.653694
0.685847
0.69316
0.681504
0.67957
0.71192
0.71718
0.703747
0.699276
0.733215
0.736815
0.722319
0.715556
0.750815
0.753513
0.738038
0.729204
0.765551
0.767768
0.751265
0.740584
0.777725
0.779745
0.762054
0.749754
0.787376
0.789379
0.770273
0.756589
0.794358
0.796432
0.775647
0.76082
0.798366
0.800527
0.777787
0.762065
0.799
0.801187
0.776257
0.759895
0.795805
0.797872
0.770543
0.753797
0.788231
0.789929
0.760064
0.74319
0.775646
0.77663
0.744169
0.727422
0.757357
0.75718
0.722159
0.705785
0.732599
0.730711
0.693231
0.677463
0.700462
0.696201
0.656427
0.641477
0.65986
0.652451
0.610574
0.596627
0.609398
0.597871
0.554002
0.541193
0.546969
0.52996
0.483923
0.472311
0.468869
0.444063
0.394749
0.38422
0.366987
0.328667
0.270816
0.260515
0.212569
0.123264
0.108146
0.121391
0.216379
0.281922
0.312109
0.313815
0.374
0.416876
0.427372
0.426897
0.481433
0.51683
0.514863
0.513773
0.568407
0.596113
0.588601
0.587357
0.63841
0.667966
0.64697
0.646846
0.708373
0.717539
0.71179
0.71154
0.746171
0.803197
0.739044
0.743611
0.882326
)
;
    }
    top
    {
        type            calculated;
        value           uniform 0;
    }
    frontAndBack
    {
        type            empty;
    }
}


// ************************************************************************* //
