# y+ ()       
# Time        	patch         	min           	max           	average       
6000          	bottom	4.037737e-02	8.464088e-01	4.394634e-01
