# y+ ()       
# Time        	patch         	min           	max           	average       
6000          	bottom	2.462197e-02	1.537832e+00	6.229372e-01
